VARIABLES = "Lag Time" "MSD"
ZONE T = "MPC 1067"
0.0000 0.0000
79.5250 6.8065
159.0500 6.7660
238.5750 6.6155
318.1000 6.9206
397.6250 6.7584
477.1500 6.8291
556.6750 6.8183
636.2000 6.7912
715.7250 6.9945
795.2500 6.7314
874.7750 6.8877
954.3000 6.8624
1033.8250 6.7186
1113.3500 6.8937
1192.8750 6.9255
1272.4000 6.8701
1351.9250 6.8893
1431.4500 6.9049
1510.9750 6.8171
1590.5000 6.7709
1670.0250 6.8272
1749.5500 6.9125
1829.0750 6.6930
1908.6000 6.8869
1988.1250 7.0850
2067.6500 6.9537
2147.1750 7.0030
2226.7000 6.8094
2306.2250 6.8019
2385.7500 6.9047
2465.2750 6.8488
2544.8000 6.8192
2624.3250 6.8829
2703.8500 6.8980
2783.3750 6.9104
2862.9000 6.8068
2942.4250 6.9117
3021.9500 6.8814
3101.4750 6.9152
3181.0000 6.9129
3260.5250 6.8892
3340.0500 6.7479
3419.5750 6.8212
3499.1000 6.6750
3578.6250 6.9885
3658.1500 7.0263
3737.6750 6.7945
3817.2000 6.9668
3896.7250 6.8393
