VARIABLES = "Lag Time" "MSD"
ZONE T = "MPC 102"
0.0000 0.0000
79.5250 128.5678
159.0500 168.6143
238.5750 179.6358
318.1000 183.6133
397.6250 187.4641
477.1500 186.8689
556.6750 189.4467
636.2000 189.3240
715.7250 191.9107
795.2500 192.1516
874.7750 191.8283
954.3000 195.2456
1033.8250 198.1287
1113.3500 192.3255
1192.8750 190.4195
1272.4000 188.1190
1351.9250 191.3685
1431.4500 192.7829
1510.9750 198.7937
1590.5000 198.4687
1670.0250 193.4670
1749.5500 188.2224
1829.0750 189.2559
1908.6000 194.1897
1988.1250 193.4604
2067.6500 195.2365
2147.1750 197.2851
2226.7000 199.5304
2306.2250 197.4134
2385.7500 200.7371
2465.2750 204.1034
2544.8000 205.1499
2624.3250 201.6264
2703.8500 202.0432
2783.3750 203.3078
2862.9000 202.3391
2942.4250 201.0850
3021.9500 198.8879
3101.4750 198.7562
3181.0000 195.8380
3260.5250 197.8995
3340.0500 201.4477
3419.5750 203.7331
3499.1000 206.6357
3578.6250 207.0499
3658.1500 204.9827
3737.6750 206.7806
3817.2000 205.5693
3896.7250 203.3692
