VARIABLES = "Lag Time" "MSD"
ZONE T = "MPC 1088"
0.0000 0.0000
79.5250 6.2509
159.0500 6.2696
238.5750 6.3285
318.1000 6.4001
397.6250 6.3580
477.1500 6.4755
556.6750 6.3185
636.2000 6.2482
715.7250 6.1704
795.2500 6.2953
874.7750 6.4142
954.3000 6.3216
1033.8250 6.2780
1113.3500 6.3248
1192.8750 6.3507
1272.4000 6.1952
1351.9250 6.2839
1431.4500 6.1905
1510.9750 6.1763
1590.5000 6.1503
1670.0250 6.2859
1749.5500 6.2875
1829.0750 6.2432
1908.6000 6.3010
1988.1250 6.2368
2067.6500 6.1742
2147.1750 6.3278
2226.7000 6.3050
2306.2250 6.3773
2385.7500 6.4327
2465.2750 6.2608
2544.8000 6.3231
2624.3250 6.4654
2703.8500 6.1399
2783.3750 6.0135
2862.9000 6.2229
2942.4250 6.2190
3021.9500 6.2059
3101.4750 6.2410
3181.0000 6.3611
3260.5250 6.4083
3340.0500 6.2271
3419.5750 6.3980
3499.1000 6.1987
3578.6250 6.4152
3658.1500 6.3373
3737.6750 6.2739
3817.2000 6.3750
3896.7250 6.3210
