VARIABLES = "Lag Time" "MSD"
ZONE T = "MPC 1069"
0.0000 0.0000
79.5250 6.2198
159.0500 6.4482
238.5750 6.4841
318.1000 6.3594
397.6250 6.5984
477.1500 6.3868
556.6750 6.4671
636.2000 6.5907
715.7250 6.4028
795.2500 6.4486
874.7750 6.5828
954.3000 6.4737
1033.8250 6.5571
1113.3500 6.4531
1192.8750 6.4683
1272.4000 6.5063
1351.9250 6.4502
1431.4500 6.3719
1510.9750 6.5227
1590.5000 6.4270
1670.0250 6.5555
1749.5500 6.4134
1829.0750 6.6250
1908.6000 6.6507
1988.1250 6.6837
2067.6500 6.5744
2147.1750 6.6404
2226.7000 6.5262
2306.2250 6.4331
2385.7500 6.4015
2465.2750 6.5687
2544.8000 6.4340
2624.3250 6.3462
2703.8500 6.6148
2783.3750 6.6529
2862.9000 6.5116
2942.4250 6.5864
3021.9500 6.4335
3101.4750 6.4948
3181.0000 6.7238
3260.5250 6.5066
3340.0500 6.5421
3419.5750 6.6478
3499.1000 6.7184
3578.6250 6.5372
3658.1500 6.5840
3737.6750 6.5191
3817.2000 6.4596
3896.7250 6.5090
