VARIABLES = "Lag Time" "MSD"
ZONE T = "MPC 138"
0.0000 0.0000
79.5250 104.1627
159.0500 126.7444
238.5750 133.9817
318.1000 138.0391
397.6250 143.3826
477.1500 144.5168
556.6750 147.0604
636.2000 145.7016
715.7250 148.4460
795.2500 149.8064
874.7750 149.0143
954.3000 151.3166
1033.8250 155.3860
1113.3500 157.1381
1192.8750 158.1100
1272.4000 160.0361
1351.9250 159.1283
1431.4500 163.0565
1510.9750 166.3374
1590.5000 166.5507
1670.0250 168.2312
1749.5500 169.1098
1829.0750 170.3364
1908.6000 172.0054
1988.1250 171.8953
2067.6500 171.4935
2147.1750 175.5458
2226.7000 177.8963
2306.2250 180.7053
2385.7500 180.2925
2465.2750 180.1660
2544.8000 180.0971
2624.3250 182.8156
2703.8500 185.1923
2783.3750 188.2251
2862.9000 187.4173
2942.4250 192.9342
3021.9500 192.0397
3101.4750 189.8891
3181.0000 191.4403
3260.5250 193.7505
3340.0500 195.8689
3419.5750 196.8914
3499.1000 197.9679
3578.6250 200.2844
3658.1500 197.3392
3737.6750 199.1515
3817.2000 201.3695
3896.7250 199.6638
