VARIABLES = "Lag Time" "MSD"
ZONE T = "MPC 1006"
0.0000 0.0000
79.5250 7.2139
159.0500 7.2797
238.5750 7.4113
318.1000 7.2762
397.6250 7.3422
477.1500 7.2438
556.6750 7.3714
636.2000 7.4021
715.7250 7.2082
795.2500 7.2306
874.7750 7.3315
954.3000 7.3656
1033.8250 7.3166
1113.3500 7.3383
1192.8750 7.2922
1272.4000 7.3400
1351.9250 7.4102
1431.4500 7.4254
1510.9750 7.2941
1590.5000 7.4027
1670.0250 7.5059
1749.5500 7.1723
1829.0750 7.5738
1908.6000 7.3345
1988.1250 7.3713
2067.6500 7.5237
2147.1750 7.4244
2226.7000 7.3877
2306.2250 7.1845
2385.7500 7.3502
2465.2750 7.4160
2544.8000 7.3382
2624.3250 7.3091
2703.8500 7.5558
2783.3750 7.4414
2862.9000 7.4475
2942.4250 7.3658
3021.9500 7.3147
3101.4750 7.3061
3181.0000 7.4052
3260.5250 7.3422
3340.0500 7.3042
3419.5750 7.2353
3499.1000 7.3696
3578.6250 7.2794
3658.1500 7.4369
3737.6750 7.4406
3817.2000 7.4573
3896.7250 7.4857
