VARIABLES = "Lag Time" "MSD"
ZONE T = "MPC 23"
0.0000 0.0000
79.5250 334.2658
159.0500 656.7332
238.5750 968.4161
318.1000 1268.0490
397.6250 1553.0373
477.1500 1818.3875
556.6750 2080.3094
636.2000 2340.9558
715.7250 2579.0943
795.2500 2807.2665
874.7750 3029.5113
954.3000 3239.1538
1033.8250 3432.1208
1113.3500 3626.6308
1192.8750 3813.6938
1272.4000 3992.8346
1351.9250 4176.5436
1431.4500 4353.8299
1510.9750 4525.5577
1590.5000 4687.3762
1670.0250 4839.7628
1749.5500 5000.7062
1829.0750 5167.6570
1908.6000 5314.2861
1988.1250 5472.2166
2067.6500 5636.0400
2147.1750 5782.7549
2226.7000 5919.7155
2306.2250 6040.3787
2385.7500 6166.8183
2465.2750 6294.6039
2544.8000 6416.3601
2624.3250 6527.9049
2703.8500 6637.5313
2783.3750 6741.1173
2862.9000 6852.3590
2942.4250 6964.6906
3021.9500 7073.3844
3101.4750 7179.7112
3181.0000 7286.5092
3260.5250 7393.7987
3340.0500 7502.8409
3419.5750 7608.0270
3499.1000 7702.1797
3578.6250 7797.0811
3658.1500 7885.2911
3737.6750 7973.1897
3817.2000 8061.7148
3896.7250 8130.2119
