VARIABLES = "Lag Time" "MSD"
ZONE T = "MPC 295"
0.0000 0.0000
79.5250 39.9706
159.0500 42.3562
238.5750 43.0536
318.1000 44.1327
397.6250 43.4779
477.1500 44.9054
556.6750 45.5791
636.2000 46.2008
715.7250 46.1154
795.2500 46.0104
874.7750 46.3118
954.3000 48.0028
1033.8250 47.1942
1113.3500 46.9116
1192.8750 49.1018
1272.4000 48.3673
1351.9250 48.8469
1431.4500 47.9934
1510.9750 48.1206
1590.5000 48.6534
1670.0250 49.1308
1749.5500 48.8139
1829.0750 50.4906
1908.6000 50.7423
1988.1250 50.7531
2067.6500 50.7477
2147.1750 52.0104
2226.7000 52.3144
2306.2250 52.2350
2385.7500 52.9709
2465.2750 52.6657
2544.8000 52.0553
2624.3250 52.9746
2703.8500 52.9943
2783.3750 54.1816
2862.9000 54.9644
2942.4250 54.7033
3021.9500 55.2392
3101.4750 55.3098
3181.0000 55.4073
3260.5250 55.5631
3340.0500 56.4002
3419.5750 56.9398
3499.1000 56.9461
3578.6250 57.2600
3658.1500 57.4041
3737.6750 57.6604
3817.2000 57.6278
3896.7250 57.3562
