VARIABLES = "Lag Time" "MSD"
ZONE T = "MPC 206"
0.0000 0.0000
79.5250 63.0968
159.0500 71.5238
238.5750 75.6226
318.1000 76.0815
397.6250 76.4085
477.1500 76.7180
556.6750 78.2782
636.2000 78.4121
715.7250 77.0697
795.2500 78.5433
874.7750 77.9133
954.3000 78.6075
1033.8250 78.8658
1113.3500 80.3387
1192.8750 80.3594
1272.4000 79.5719
1351.9250 80.2034
1431.4500 80.2092
1510.9750 81.1557
1590.5000 82.7676
1670.0250 81.3425
1749.5500 80.9597
1829.0750 82.0388
1908.6000 82.9613
1988.1250 83.1083
2067.6500 81.0788
2147.1750 81.2732
2226.7000 82.3925
2306.2250 82.3102
2385.7500 85.2017
2465.2750 82.9081
2544.8000 84.2556
2624.3250 82.8729
2703.8500 83.9238
2783.3750 83.1666
2862.9000 83.6569
2942.4250 82.7827
3021.9500 81.9687
3101.4750 84.6956
3181.0000 85.2386
3260.5250 83.5533
3340.0500 83.5482
3419.5750 84.9628
3499.1000 84.9786
3578.6250 84.4773
3658.1500 85.4691
3737.6750 87.3143
3817.2000 85.6039
3896.7250 86.3733
