VARIABLES = "Lag Time" "MSD"
ZONE T = "MPC 258"
0.0000 0.0000
79.5250 50.5366
159.0500 54.2467
238.5750 55.9580
318.1000 55.5642
397.6250 56.3091
477.1500 56.7865
556.6750 57.9263
636.2000 59.0195
715.7250 59.1817
795.2500 60.3786
874.7750 59.3874
954.3000 60.4479
1033.8250 59.4337
1113.3500 61.3614
1192.8750 62.4325
1272.4000 63.6274
1351.9250 62.6677
1431.4500 63.8016
1510.9750 64.0723
1590.5000 63.7091
1670.0250 64.3220
1749.5500 64.3456
1829.0750 63.6292
1908.6000 64.8267
1988.1250 63.7382
2067.6500 66.5985
2147.1750 66.3708
2226.7000 65.6864
2306.2250 66.0479
2385.7500 67.1566
2465.2750 66.4459
2544.8000 67.8727
2624.3250 69.0881
2703.8500 68.6686
2783.3750 69.1320
2862.9000 69.6794
2942.4250 71.2934
3021.9500 69.8487
3101.4750 68.8733
3181.0000 69.5978
3260.5250 70.5223
3340.0500 70.2379
3419.5750 71.4010
3499.1000 71.1556
3578.6250 71.5306
3658.1500 70.8412
3737.6750 72.6392
3817.2000 72.4931
3896.7250 73.9820
