VARIABLES = "Lag Time" "MSD"
ZONE T = "MPC 216"
0.0000 0.0000
79.5250 63.5376
159.0500 69.7214
238.5750 71.1439
318.1000 70.4337
397.6250 71.4733
477.1500 70.8074
556.6750 71.3497
636.2000 71.7281
715.7250 71.6098
795.2500 73.2381
874.7750 74.2177
954.3000 75.5973
1033.8250 75.9518
1113.3500 76.1696
1192.8750 77.4432
1272.4000 76.5696
1351.9250 76.4761
1431.4500 77.3652
1510.9750 77.5838
1590.5000 77.7399
1670.0250 78.1499
1749.5500 77.8773
1829.0750 79.8391
1908.6000 80.2662
1988.1250 80.0984
2067.6500 81.1916
2147.1750 79.5290
2226.7000 81.6934
2306.2250 78.8883
2385.7500 80.2528
2465.2750 78.6942
2544.8000 80.8708
2624.3250 81.6663
2703.8500 80.6408
2783.3750 80.8551
2862.9000 81.6160
2942.4250 81.9582
3021.9500 82.8443
3101.4750 83.0397
3181.0000 83.7947
3260.5250 83.7050
3340.0500 85.7935
3419.5750 85.8006
3499.1000 85.4240
3578.6250 87.2657
3658.1500 86.0016
3737.6750 85.3905
3817.2000 86.1274
3896.7250 84.8009
