VARIABLES = "Lag Time" "MSD"
ZONE T = "MPC 208"
0.0000 0.0000
79.5250 62.2520
159.0500 70.4685
238.5750 71.1523
318.1000 72.1165
397.6250 72.5709
477.1500 74.6586
556.6750 74.6874
636.2000 74.8837
715.7250 74.3739
795.2500 74.5760
874.7750 74.6269
954.3000 75.5166
1033.8250 75.0253
1113.3500 76.6144
1192.8750 75.2356
1272.4000 74.8645
1351.9250 76.1515
1431.4500 77.4236
1510.9750 79.8019
1590.5000 77.7397
1670.0250 78.2854
1749.5500 79.0077
1829.0750 80.1402
1908.6000 79.3345
1988.1250 78.5573
2067.6500 78.4596
2147.1750 79.3896
2226.7000 78.6620
2306.2250 79.6789
2385.7500 80.7321
2465.2750 80.3148
2544.8000 82.4334
2624.3250 81.4394
2703.8500 82.5851
2783.3750 81.7670
2862.9000 80.8789
2942.4250 82.6428
3021.9500 83.4005
3101.4750 82.0414
3181.0000 83.2333
3260.5250 83.4952
3340.0500 81.5966
3419.5750 83.1535
3499.1000 84.2157
3578.6250 84.4811
3658.1500 86.1840
3737.6750 84.1938
3817.2000 84.9240
3896.7250 84.0881
