VARIABLES = "Lag Time" "MSD"
ZONE T = "MPC 305"
0.0000 0.0000
79.5250 42.1287
159.0500 44.8510
238.5750 44.4576
318.1000 45.0131
397.6250 46.4379
477.1500 46.1342
556.6750 46.6519
636.2000 46.3733
715.7250 47.1174
795.2500 48.4535
874.7750 48.5742
954.3000 49.1099
1033.8250 48.9279
1113.3500 48.0392
1192.8750 49.9601
1272.4000 49.0645
1351.9250 49.0728
1431.4500 49.7240
1510.9750 50.3932
1590.5000 50.1733
1670.0250 50.4912
1749.5500 51.1229
1829.0750 50.8966
1908.6000 50.9846
1988.1250 50.8805
2067.6500 51.7574
2147.1750 50.7150
2226.7000 51.3337
2306.2250 52.3907
2385.7500 52.1509
2465.2750 52.2182
2544.8000 51.6560
2624.3250 53.1252
2703.8500 50.9749
2783.3750 51.0713
2862.9000 52.4426
2942.4250 53.4183
3021.9500 53.7803
3101.4750 52.9016
3181.0000 53.0784
3260.5250 54.4318
3340.0500 54.1630
3419.5750 54.6792
3499.1000 54.1768
3578.6250 54.1178
3658.1500 53.8462
3737.6750 55.2392
3817.2000 54.4693
3896.7250 54.9668
