VARIABLES = "Lag Time" "MSD"
ZONE T = "MPC 344"
0.0000 0.0000
79.5250 29.9955
159.0500 31.7685
238.5750 33.9568
318.1000 34.7468
397.6250 36.4363
477.1500 36.8730
556.6750 37.9362
636.2000 39.3588
715.7250 40.3554
795.2500 41.2495
874.7750 42.5414
954.3000 43.9098
1033.8250 44.0719
1113.3500 44.8309
1192.8750 45.5965
1272.4000 45.7692
1351.9250 47.6542
1431.4500 47.9224
1510.9750 48.3444
1590.5000 49.6272
1670.0250 50.3938
1749.5500 51.1065
1829.0750 51.4252
1908.6000 52.1083
1988.1250 52.2043
2067.6500 52.5671
2147.1750 52.8578
2226.7000 54.3200
2306.2250 54.4124
2385.7500 56.0147
2465.2750 55.9948
2544.8000 56.3404
2624.3250 57.8538
2703.8500 58.1108
2783.3750 58.3561
2862.9000 59.2958
2942.4250 60.3951
3021.9500 61.0456
3101.4750 61.8423
3181.0000 62.3059
3260.5250 62.3823
3340.0500 63.0888
3419.5750 63.0777
3499.1000 64.0343
3578.6250 64.2955
3658.1500 64.7141
3737.6750 65.7097
3817.2000 66.7922
3896.7250 66.9749
