VARIABLES = "Lag Time" "MSD"
ZONE T = "MPC 310"
0.0000 0.0000
79.5250 40.7417
159.0500 43.4151
238.5750 44.3685
318.1000 45.2803
397.6250 45.3003
477.1500 46.0932
556.6750 46.8340
636.2000 47.9366
715.7250 49.0897
795.2500 48.8145
874.7750 49.2145
954.3000 50.9291
1033.8250 50.4045
1113.3500 52.1407
1192.8750 52.3526
1272.4000 52.2460
1351.9250 53.0419
1431.4500 53.1579
1510.9750 53.0891
1590.5000 55.1690
1670.0250 54.9374
1749.5500 55.8163
1829.0750 54.4506
1908.6000 55.3686
1988.1250 56.7522
2067.6500 57.0695
2147.1750 56.6057
2226.7000 58.4285
2306.2250 58.3794
2385.7500 58.3443
2465.2750 59.6917
2544.8000 60.4352
2624.3250 60.1937
2703.8500 59.1990
2783.3750 60.4113
2862.9000 61.1506
2942.4250 61.3786
3021.9500 61.8538
3101.4750 62.8921
3181.0000 61.4594
3260.5250 62.2900
3340.0500 62.5175
3419.5750 64.2111
3499.1000 64.0285
3578.6250 64.4582
3658.1500 64.4282
3737.6750 64.5445
3817.2000 65.1834
3896.7250 65.2289
