VARIABLES = "Lag Time" "MSD"
ZONE T = "MPC 471"
0.0000 0.0000
79.5250 20.7270
159.0500 21.7481
238.5750 22.1698
318.1000 22.4920
397.6250 23.1327
477.1500 24.0107
556.6750 24.3716
636.2000 24.3949
715.7250 24.9166
795.2500 25.8101
874.7750 25.2443
954.3000 25.8028
1033.8250 25.9463
1113.3500 26.5268
1192.8750 26.8944
1272.4000 26.8644
1351.9250 27.0341
1431.4500 28.4541
1510.9750 27.9376
1590.5000 28.2266
1670.0250 28.4738
1749.5500 28.7207
1829.0750 29.0901
1908.6000 29.3140
1988.1250 29.6426
2067.6500 29.9414
2147.1750 30.2418
2226.7000 30.2523
2306.2250 30.4886
2385.7500 31.5580
2465.2750 32.1429
2544.8000 31.5512
2624.3250 32.3581
2703.8500 32.1475
2783.3750 32.2738
2862.9000 32.1109
2942.4250 32.9827
3021.9500 33.4380
3101.4750 33.4104
3181.0000 34.1850
3260.5250 34.1243
3340.0500 33.9536
3419.5750 34.4114
3499.1000 34.4281
3578.6250 34.9432
3658.1500 35.0811
3737.6750 34.5918
3817.2000 35.2538
3896.7250 34.7184
