VARIABLES = "Lag Time" "MSD"
ZONE T = "MPC 406"
0.0000 0.0000
79.5250 25.9162
159.0500 27.1483
238.5750 27.5998
318.1000 27.8393
397.6250 27.8218
477.1500 28.1947
556.6750 28.7802
636.2000 28.8786
715.7250 30.0375
795.2500 29.3284
874.7750 29.3657
954.3000 29.9701
1033.8250 30.8749
1113.3500 31.0762
1192.8750 31.6806
1272.4000 31.6671
1351.9250 31.3298
1431.4500 31.5384
1510.9750 31.8656
1590.5000 31.7794
1670.0250 32.1804
1749.5500 32.0679
1829.0750 32.5986
1908.6000 33.3155
1988.1250 32.7255
2067.6500 33.8071
2147.1750 33.4162
2226.7000 33.7195
2306.2250 33.7797
2385.7500 33.8413
2465.2750 33.8837
2544.8000 34.2110
2624.3250 34.6738
2703.8500 34.4823
2783.3750 34.7592
2862.9000 34.3967
2942.4250 34.5951
3021.9500 34.9273
3101.4750 35.7174
3181.0000 35.7413
3260.5250 35.4507
3340.0500 36.1655
3419.5750 35.5063
3499.1000 36.2228
3578.6250 35.9817
3658.1500 35.9762
3737.6750 36.3270
3817.2000 35.8690
3896.7250 35.8877
