VARIABLES = "Lag Time" "MSD"
ZONE T = "MPC 424"
0.0000 0.0000
79.5250 24.7115
159.0500 25.4586
238.5750 26.0320
318.1000 26.1797
397.6250 26.9127
477.1500 27.5256
556.6750 27.8267
636.2000 28.1428
715.7250 28.3245
795.2500 28.2737
874.7750 29.1315
954.3000 29.6578
1033.8250 30.1320
1113.3500 30.0229
1192.8750 31.7533
1272.4000 31.2145
1351.9250 32.1188
1431.4500 32.0104
1510.9750 32.7696
1590.5000 33.5293
1670.0250 33.8973
1749.5500 33.4510
1829.0750 34.2559
1908.6000 34.3515
1988.1250 34.7619
2067.6500 35.2331
2147.1750 35.5211
2226.7000 35.7231
2306.2250 36.6111
2385.7500 37.4003
2465.2750 37.1726
2544.8000 37.0456
2624.3250 38.5284
2703.8500 38.5546
2783.3750 38.5972
2862.9000 38.7514
2942.4250 39.7766
3021.9500 39.3105
3101.4750 39.7347
3181.0000 39.8117
3260.5250 40.9955
3340.0500 40.6559
3419.5750 40.5958
3499.1000 41.1792
3578.6250 41.4554
3658.1500 41.9246
3737.6750 41.9300
3817.2000 41.9883
3896.7250 42.4190
