VARIABLES = "Lag Time" "MSD"
ZONE T = "MPC 427"
0.0000 0.0000
79.5250 24.2580
159.0500 24.9859
238.5750 26.1293
318.1000 26.5956
397.6250 26.2812
477.1500 27.5042
556.6750 28.1427
636.2000 28.3168
715.7250 28.3067
795.2500 29.6838
874.7750 29.2272
954.3000 30.0049
1033.8250 29.9610
1113.3500 30.4532
1192.8750 31.2227
1272.4000 31.9532
1351.9250 31.2499
1431.4500 32.6121
1510.9750 32.1730
1590.5000 32.7313
1670.0250 33.0423
1749.5500 34.2584
1829.0750 33.6023
1908.6000 34.5133
1988.1250 34.8069
2067.6500 35.6239
2147.1750 35.6855
2226.7000 35.7802
2306.2250 36.3054
2385.7500 36.2766
2465.2750 36.9465
2544.8000 36.9529
2624.3250 37.4890
2703.8500 37.7462
2783.3750 38.6468
2862.9000 38.6858
2942.4250 38.7321
3021.9500 39.2910
3101.4750 39.7227
3181.0000 39.9690
3260.5250 40.3167
3340.0500 40.6306
3419.5750 40.4588
3499.1000 40.9608
3578.6250 40.8092
3658.1500 40.9286
3737.6750 41.5868
3817.2000 42.2967
3896.7250 42.9266
