VARIABLES = "Lag Time" "MSD"
ZONE T = "MPC 481"
0.0000 0.0000
79.5250 20.5130
159.0500 22.2564
238.5750 22.1326
318.1000 22.7327
397.6250 23.0740
477.1500 23.0589
556.6750 23.7370
636.2000 23.9737
715.7250 24.4367
795.2500 24.8115
874.7750 25.0086
954.3000 25.3125
1033.8250 25.5648
1113.3500 26.0302
1192.8750 25.6684
1272.4000 26.5721
1351.9250 27.2209
1431.4500 26.9864
1510.9750 26.7755
1590.5000 27.7016
1670.0250 28.2858
1749.5500 28.4053
1829.0750 28.6615
1908.6000 29.0365
1988.1250 28.6087
2067.6500 28.4817
2147.1750 29.1550
2226.7000 29.3616
2306.2250 29.8882
2385.7500 30.5111
2465.2750 29.5150
2544.8000 30.2296
2624.3250 29.9950
2703.8500 29.9777
2783.3750 30.6343
2862.9000 30.9262
2942.4250 31.1337
3021.9500 31.3006
3101.4750 31.0569
3181.0000 31.2600
3260.5250 31.2811
3340.0500 31.5614
3419.5750 32.4548
3499.1000 31.7996
3578.6250 31.9874
3658.1500 31.7953
3737.6750 32.5467
3817.2000 32.6230
3896.7250 32.5926
