VARIABLES = "Lag Time" "MSD"
ZONE T = "MPC 433"
0.0000 0.0000
79.5250 23.9926
159.0500 25.0208
238.5750 25.3948
318.1000 25.7475
397.6250 26.2446
477.1500 26.5071
556.6750 26.5300
636.2000 26.6749
715.7250 26.6089
795.2500 27.2640
874.7750 26.9593
954.3000 27.5154
1033.8250 27.4489
1113.3500 27.4760
1192.8750 28.3680
1272.4000 28.7181
1351.9250 28.6217
1431.4500 29.7602
1510.9750 29.0951
1590.5000 29.2935
1670.0250 29.4789
1749.5500 30.1059
1829.0750 29.8927
1908.6000 30.3729
1988.1250 30.8955
2067.6500 31.0946
2147.1750 31.0145
2226.7000 31.5922
2306.2250 31.2392
2385.7500 31.7598
2465.2750 31.7881
2544.8000 31.9889
2624.3250 32.0693
2703.8500 31.9432
2783.3750 32.1403
2862.9000 32.7256
2942.4250 33.2375
3021.9500 33.3460
3101.4750 33.4633
3181.0000 33.2280
3260.5250 33.5544
3340.0500 33.0266
3419.5750 33.7691
3499.1000 33.8033
3578.6250 33.6917
3658.1500 34.3995
3737.6750 34.6028
3817.2000 34.9074
3896.7250 34.9469
