VARIABLES = "Lag Time" "MSD"
ZONE T = "MPC 483"
0.0000 0.0000
79.5250 20.9771
159.0500 21.8940
238.5750 22.6229
318.1000 23.0982
397.6250 23.1547
477.1500 23.4431
556.6750 23.1666
636.2000 24.3953
715.7250 24.0123
795.2500 25.2689
874.7750 24.7776
954.3000 24.8648
1033.8250 25.8170
1113.3500 25.7846
1192.8750 26.5344
1272.4000 26.4659
1351.9250 26.9039
1431.4500 27.4349
1510.9750 28.1290
1590.5000 28.3640
1670.0250 28.3040
1749.5500 28.5676
1829.0750 28.4979
1908.6000 28.9142
1988.1250 28.9739
2067.6500 29.3112
2147.1750 29.6087
2226.7000 29.5593
2306.2250 29.9777
2385.7500 30.1229
2465.2750 30.6609
2544.8000 30.8268
2624.3250 30.6791
2703.8500 31.3752
2783.3750 31.3872
2862.9000 31.5352
2942.4250 31.9100
3021.9500 32.5283
3101.4750 32.3828
3181.0000 32.2796
3260.5250 32.6515
3340.0500 32.5957
3419.5750 33.0416
3499.1000 33.0813
3578.6250 33.6678
3658.1500 33.2721
3737.6750 33.5144
3817.2000 33.5980
3896.7250 33.6443
