VARIABLES = "Lag Time" "MSD"
ZONE T = "MPC 539"
0.0000 0.0000
79.5250 17.9857
159.0500 18.3818
238.5750 18.4501
318.1000 19.1011
397.6250 18.8336
477.1500 18.9523
556.6750 18.9946
636.2000 19.6727
715.7250 19.5174
795.2500 19.5600
874.7750 19.4924
954.3000 20.0096
1033.8250 20.1575
1113.3500 20.2172
1192.8750 20.2391
1272.4000 20.7081
1351.9250 20.4101
1431.4500 20.2552
1510.9750 20.4250
1590.5000 20.7344
1670.0250 20.3250
1749.5500 20.8799
1829.0750 20.8115
1908.6000 20.8042
1988.1250 20.7719
2067.6500 20.9779
2147.1750 21.0520
2226.7000 21.1334
2306.2250 20.5785
2385.7500 21.0086
2465.2750 20.5461
2544.8000 20.8900
2624.3250 20.8253
2703.8500 21.2442
2783.3750 21.4436
2862.9000 20.4307
2942.4250 21.1729
3021.9500 21.1045
3101.4750 21.1913
3181.0000 21.4338
3260.5250 21.2659
3340.0500 21.2187
3419.5750 21.5119
3499.1000 21.3246
3578.6250 21.2861
3658.1500 21.5445
3737.6750 21.8738
3817.2000 21.5683
3896.7250 21.7366
