VARIABLES = "Lag Time" "MSD"
ZONE T = "MPC 512"
0.0000 0.0000
79.5250 18.8980
159.0500 19.6751
238.5750 20.0948
318.1000 20.5355
397.6250 20.5648
477.1500 21.1467
556.6750 21.1362
636.2000 21.8793
715.7250 21.9961
795.2500 22.1258
874.7750 22.4983
954.3000 22.2925
1033.8250 22.5980
1113.3500 22.7955
1192.8750 23.2574
1272.4000 23.3220
1351.9250 23.8807
1431.4500 23.6753
1510.9750 24.1328
1590.5000 24.2983
1670.0250 24.5375
1749.5500 23.9045
1829.0750 24.5837
1908.6000 24.6618
1988.1250 24.8645
2067.6500 25.3079
2147.1750 24.5703
2226.7000 25.5030
2306.2250 24.9875
2385.7500 25.6757
2465.2750 25.4934
2544.8000 25.7201
2624.3250 25.9367
2703.8500 25.6811
2783.3750 26.0416
2862.9000 26.0305
2942.4250 26.2691
3021.9500 26.5782
3101.4750 25.9897
3181.0000 26.5404
3260.5250 26.0985
3340.0500 25.8863
3419.5750 26.8887
3499.1000 26.4156
3578.6250 26.4079
3658.1500 26.5303
3737.6750 26.7847
3817.2000 27.3726
3896.7250 27.0336
