VARIABLES = "Lag Time" "MSD"
ZONE T = "MPC 530"
0.0000 0.0000
79.5250 18.1965
159.0500 18.8165
238.5750 19.5860
318.1000 20.0256
397.6250 20.2577
477.1500 20.8788
556.6750 21.4467
636.2000 21.5637
715.7250 21.8110
795.2500 21.9371
874.7750 21.8452
954.3000 22.3211
1033.8250 22.7531
1113.3500 22.6593
1192.8750 22.8714
1272.4000 23.2277
1351.9250 23.6654
1431.4500 23.8111
1510.9750 23.8624
1590.5000 24.0314
1670.0250 24.5505
1749.5500 24.5501
1829.0750 24.9213
1908.6000 24.6619
1988.1250 24.5819
2067.6500 24.7756
2147.1750 25.1761
2226.7000 25.0697
2306.2250 25.5575
2385.7500 25.9264
2465.2750 25.9446
2544.8000 25.7820
2624.3250 26.1906
2703.8500 26.2877
2783.3750 25.8686
2862.9000 26.1575
2942.4250 26.0260
3021.9500 26.2870
3101.4750 26.3176
3181.0000 26.5902
3260.5250 26.5058
3340.0500 26.5187
3419.5750 26.5169
3499.1000 27.1021
3578.6250 27.1059
3658.1500 27.3519
3737.6750 27.0986
3817.2000 27.3680
3896.7250 27.2527
