VARIABLES = "Lag Time" "MSD"
ZONE T = "MPC 543"
0.0000 0.0000
79.5250 17.9006
159.0500 18.3828
238.5750 18.9102
318.1000 18.5595
397.6250 19.0086
477.1500 19.4783
556.6750 19.7778
636.2000 19.4761
715.7250 20.0619
795.2500 20.0605
874.7750 20.1496
954.3000 20.0047
1033.8250 20.3575
1113.3500 20.4085
1192.8750 20.4525
1272.4000 20.5589
1351.9250 20.7623
1431.4500 20.8926
1510.9750 20.6310
1590.5000 20.6214
1670.0250 20.9328
1749.5500 21.4968
1829.0750 20.9675
1908.6000 21.2214
1988.1250 21.1847
2067.6500 21.9445
2147.1750 21.6777
2226.7000 22.0392
2306.2250 21.7340
2385.7500 21.2973
2465.2750 21.6343
2544.8000 22.0145
2624.3250 22.1925
2703.8500 21.8172
2783.3750 21.7374
2862.9000 22.3712
2942.4250 22.1732
3021.9500 22.4512
3101.4750 22.4360
3181.0000 22.0649
3260.5250 22.5438
3340.0500 22.8932
3419.5750 22.5115
3499.1000 22.7642
3578.6250 22.8798
3658.1500 23.0469
3737.6750 23.2603
3817.2000 23.1941
3896.7250 22.9449
