VARIABLES = "Lag Time" "MSD"
ZONE T = "MPC 538"
0.0000 0.0000
79.5250 15.7868
159.0500 16.9921
238.5750 17.2724
318.1000 18.2412
397.6250 18.4325
477.1500 18.9061
556.6750 19.7715
636.2000 20.2109
715.7250 20.4743
795.2500 21.0723
874.7750 21.0142
954.3000 21.6846
1033.8250 22.3370
1113.3500 22.5712
1192.8750 22.9707
1272.4000 23.2218
1351.9250 23.4823
1431.4500 23.7625
1510.9750 24.0138
1590.5000 24.2944
1670.0250 24.2071
1749.5500 24.5977
1829.0750 24.9546
1908.6000 25.6454
1988.1250 25.6803
2067.6500 25.7813
2147.1750 26.1791
2226.7000 26.2225
2306.2250 26.6167
2385.7500 26.8695
2465.2750 27.0700
2544.8000 27.4459
2624.3250 27.5717
2703.8500 28.0637
2783.3750 28.4424
2862.9000 28.5305
2942.4250 28.9383
3021.9500 29.5683
3101.4750 29.6351
3181.0000 30.0112
3260.5250 29.8664
3340.0500 30.2735
3419.5750 30.8182
3499.1000 30.5823
3578.6250 30.9118
3658.1500 31.0695
3737.6750 31.6033
3817.2000 31.8411
3896.7250 31.8664
