VARIABLES = "Lag Time" "MSD"
ZONE T = "MPC 525"
0.0000 0.0000
79.5250 18.6221
159.0500 19.4456
238.5750 19.4481
318.1000 19.4109
397.6250 20.3306
477.1500 20.4519
556.6750 20.0241
636.2000 20.3426
715.7250 20.4944
795.2500 20.1748
874.7750 20.7034
954.3000 20.7990
1033.8250 20.8269
1113.3500 20.8012
1192.8750 20.9559
1272.4000 21.5815
1351.9250 21.2090
1431.4500 21.5578
1510.9750 21.2632
1590.5000 21.3604
1670.0250 21.5811
1749.5500 21.7721
1829.0750 22.1625
1908.6000 22.3308
1988.1250 22.0199
2067.6500 22.4004
2147.1750 22.1135
2226.7000 22.2584
2306.2250 22.3693
2385.7500 22.6442
2465.2750 22.8931
2544.8000 22.8826
2624.3250 22.9845
2703.8500 22.8515
2783.3750 23.1741
2862.9000 23.2233
2942.4250 23.2627
3021.9500 22.9431
3101.4750 23.0798
3181.0000 23.0213
3260.5250 23.4882
3340.0500 22.9690
3419.5750 23.6553
3499.1000 23.5882
3578.6250 23.6886
3658.1500 23.8975
3737.6750 24.0478
3817.2000 23.3528
3896.7250 23.9464
