VARIABLES = "Lag Time" "MSD"
ZONE T = "MPC 572"
0.0000 0.0000
79.5250 17.6798
159.0500 17.6699
238.5750 18.2780
318.1000 18.5553
397.6250 18.2329
477.1500 18.5189
556.6750 18.7857
636.2000 19.2000
715.7250 19.1139
795.2500 19.6880
874.7750 20.1874
954.3000 19.6776
1033.8250 19.6706
1113.3500 19.5047
1192.8750 20.1528
1272.4000 20.1893
1351.9250 20.0861
1431.4500 20.3001
1510.9750 20.4594
1590.5000 20.8635
1670.0250 19.9069
1749.5500 20.5077
1829.0750 20.2464
1908.6000 20.5516
1988.1250 20.6299
2067.6500 20.5910
2147.1750 20.6213
2226.7000 21.0188
2306.2250 20.9190
2385.7500 20.8505
2465.2750 21.1099
2544.8000 21.1608
2624.3250 20.8755
2703.8500 21.1429
2783.3750 21.2366
2862.9000 21.2587
2942.4250 21.4996
3021.9500 21.0092
3101.4750 21.6493
3181.0000 21.6337
3260.5250 21.6685
3340.0500 21.8846
3419.5750 21.7830
3499.1000 21.6604
3578.6250 22.1099
3658.1500 22.0308
3737.6750 22.4824
3817.2000 22.6603
3896.7250 22.3820
