VARIABLES = "Lag Time" "MSD"
ZONE T = "MPC 624"
0.0000 0.0000
79.5250 14.8315
159.0500 15.2888
238.5750 15.4755
318.1000 15.6072
397.6250 15.7869
477.1500 16.1491
556.6750 16.1950
636.2000 15.7950
715.7250 16.3159
795.2500 16.3387
874.7750 16.4759
954.3000 15.8174
1033.8250 16.1562
1113.3500 16.4937
1192.8750 16.5839
1272.4000 16.0735
1351.9250 16.7225
1431.4500 16.5424
1510.9750 16.6772
1590.5000 16.5155
1670.0250 16.5605
1749.5500 17.1016
1829.0750 16.5152
1908.6000 16.7245
1988.1250 17.0929
2067.6500 17.1323
2147.1750 16.8425
2226.7000 16.7195
2306.2250 16.7656
2385.7500 17.0634
2465.2750 17.4053
2544.8000 17.3184
2624.3250 17.1785
2703.8500 17.2995
2783.3750 17.7459
2862.9000 17.4008
2942.4250 17.0713
3021.9500 17.3372
3101.4750 17.7399
3181.0000 17.4501
3260.5250 17.4352
3340.0500 17.5935
3419.5750 17.8310
3499.1000 18.0288
3578.6250 17.7809
3658.1500 17.5586
3737.6750 17.5902
3817.2000 17.9508
3896.7250 17.7745
