VARIABLES = "Lag Time" "MSD"
ZONE T = "MPC 680"
0.0000 0.0000
79.5250 13.2762
159.0500 13.3055
238.5750 13.9916
318.1000 14.0667
397.6250 14.0793
477.1500 14.0553
556.6750 14.0708
636.2000 13.9257
715.7250 13.8744
795.2500 14.2515
874.7750 14.4449
954.3000 14.4052
1033.8250 14.5690
1113.3500 14.5073
1192.8750 14.3108
1272.4000 14.4583
1351.9250 14.4881
1431.4500 14.1868
1510.9750 14.4140
1590.5000 14.2435
1670.0250 14.3061
1749.5500 14.6566
1829.0750 14.4452
1908.6000 14.4074
1988.1250 14.5669
2067.6500 14.1990
2147.1750 14.4983
2226.7000 14.7176
2306.2250 14.6237
2385.7500 14.6793
2465.2750 15.0935
2544.8000 14.7219
2624.3250 14.6388
2703.8500 14.7263
2783.3750 14.7357
2862.9000 14.7541
2942.4250 14.6829
3021.9500 14.6179
3101.4750 14.6098
3181.0000 14.9992
3260.5250 14.7560
3340.0500 15.0180
3419.5750 14.8012
3499.1000 15.1515
3578.6250 14.7225
3658.1500 14.8676
3737.6750 14.5637
3817.2000 14.9493
3896.7250 14.7171
