VARIABLES = "Lag Time" "MSD"
ZONE T = "MPC 620"
0.0000 0.0000
79.5250 15.8279
159.0500 15.9470
238.5750 16.8000
318.1000 16.4687
397.6250 16.5712
477.1500 16.7471
556.6750 17.1357
636.2000 17.0322
715.7250 16.8106
795.2500 17.1416
874.7750 17.1170
954.3000 17.3517
1033.8250 17.4059
1113.3500 17.6986
1192.8750 17.7868
1272.4000 17.3926
1351.9250 17.6930
1431.4500 17.7480
1510.9750 18.4083
1590.5000 17.9990
1670.0250 18.2847
1749.5500 17.9886
1829.0750 18.4990
1908.6000 18.3098
1988.1250 18.7282
2067.6500 18.5762
2147.1750 18.5168
2226.7000 18.6381
2306.2250 18.8870
2385.7500 18.8067
2465.2750 18.7691
2544.8000 18.8368
2624.3250 19.3941
2703.8500 19.0101
2783.3750 19.6277
2862.9000 19.4140
2942.4250 19.7364
3021.9500 19.7784
3101.4750 19.5065
3181.0000 19.6532
3260.5250 19.7732
3340.0500 20.0649
3419.5750 19.5787
3499.1000 19.8544
3578.6250 19.8270
3658.1500 20.0233
3737.6750 20.3367
3817.2000 19.8941
3896.7250 20.5041
