VARIABLES = "Lag Time" "MSD"
ZONE T = "MPC 703"
0.0000 0.0000
79.5250 12.5817
159.0500 12.6890
238.5750 12.8997
318.1000 13.2782
397.6250 13.0821
477.1500 13.1561
556.6750 13.0180
636.2000 13.0330
715.7250 13.1395
795.2500 13.3521
874.7750 13.1292
954.3000 13.1741
1033.8250 13.4255
1113.3500 13.1016
1192.8750 13.4945
1272.4000 13.2840
1351.9250 13.7274
1431.4500 13.5725
1510.9750 13.4233
1590.5000 13.3423
1670.0250 13.5260
1749.5500 13.5421
1829.0750 13.7751
1908.6000 13.4820
1988.1250 13.3970
2067.6500 13.8165
2147.1750 13.8159
2226.7000 13.5155
2306.2250 13.6710
2385.7500 13.8840
2465.2750 13.7757
2544.8000 13.5713
2624.3250 13.9161
2703.8500 13.7454
2783.3750 13.8047
2862.9000 13.5009
2942.4250 13.7425
3021.9500 13.8437
3101.4750 13.7023
3181.0000 13.6130
3260.5250 13.5428
3340.0500 13.8647
3419.5750 13.7827
3499.1000 13.4400
3578.6250 13.6713
3658.1500 13.9665
3737.6750 13.8207
3817.2000 13.7819
3896.7250 13.9120
