VARIABLES = "Lag Time" "MSD"
ZONE T = "MPC 795"
0.0000 0.0000
79.5250 10.3984
159.0500 10.7322
238.5750 11.0054
318.1000 11.0933
397.6250 11.0427
477.1500 11.0226
556.6750 11.1633
636.2000 11.4262
715.7250 11.3112
795.2500 11.0362
874.7750 11.0118
954.3000 11.1473
1033.8250 11.3601
1113.3500 11.2510
1192.8750 11.2423
1272.4000 11.3293
1351.9250 11.3555
1431.4500 11.4551
1510.9750 11.5606
1590.5000 11.4863
1670.0250 11.3953
1749.5500 11.5476
1829.0750 11.8362
1908.6000 11.7740
1988.1250 11.7021
2067.6500 11.6819
2147.1750 11.4928
2226.7000 11.5965
2306.2250 11.8196
2385.7500 11.4904
2465.2750 11.5840
2544.8000 11.6469
2624.3250 11.8257
2703.8500 11.7107
2783.3750 11.6140
2862.9000 11.6305
2942.4250 11.9209
3021.9500 11.9237
3101.4750 11.4520
3181.0000 11.6350
3260.5250 11.7050
3340.0500 11.7153
3419.5750 11.8783
3499.1000 11.8226
3578.6250 11.6768
3658.1500 11.7270
3737.6750 11.7274
3817.2000 11.5737
3896.7250 11.7974
