VARIABLES = "Lag Time" "MSD"
ZONE T = "MPC 750"
0.0000 0.0000
79.5250 11.3129
159.0500 11.4620
238.5750 11.6372
318.1000 11.5336
397.6250 11.6179
477.1500 12.0160
556.6750 12.0445
636.2000 11.6969
715.7250 11.7116
795.2500 11.8404
874.7750 11.8863
954.3000 11.8057
1033.8250 11.8538
1113.3500 12.1230
1192.8750 12.0733
1272.4000 11.8900
1351.9250 11.9093
1431.4500 11.9362
1510.9750 12.0322
1590.5000 11.7948
1670.0250 12.2260
1749.5500 12.2349
1829.0750 12.2516
1908.6000 12.5231
1988.1250 12.1129
2067.6500 12.2211
2147.1750 12.2227
2226.7000 12.0502
2306.2250 12.2715
2385.7500 12.5776
2465.2750 12.1994
2544.8000 12.3202
2624.3250 12.5846
2703.8500 12.2760
2783.3750 12.2943
2862.9000 11.9821
2942.4250 12.3818
3021.9500 12.1977
3101.4750 12.4308
3181.0000 12.2949
3260.5250 12.5472
3340.0500 12.5454
3419.5750 12.3987
3499.1000 12.5403
3578.6250 12.3142
3658.1500 12.6916
3737.6750 12.3521
3817.2000 12.3833
3896.7250 12.2989
