VARIABLES = "Lag Time" "MSD"
ZONE T = "MPC 701"
0.0000 0.0000
79.5250 12.5667
159.0500 12.9977
238.5750 12.7602
318.1000 13.0386
397.6250 12.8914
477.1500 13.0058
556.6750 13.3230
636.2000 13.0938
715.7250 13.3243
795.2500 13.0913
874.7750 13.1981
954.3000 13.3138
1033.8250 13.2562
1113.3500 13.4132
1192.8750 13.3061
1272.4000 13.3296
1351.9250 13.6530
1431.4500 13.6631
1510.9750 13.5469
1590.5000 13.8732
1670.0250 13.8796
1749.5500 14.1875
1829.0750 13.9324
1908.6000 14.2761
1988.1250 13.9411
2067.6500 14.0063
2147.1750 14.1990
2226.7000 13.9136
2306.2250 14.2449
2385.7500 14.4001
2465.2750 14.0556
2544.8000 14.4043
2624.3250 14.6217
2703.8500 14.4693
2783.3750 14.6137
2862.9000 14.5725
2942.4250 14.4794
3021.9500 14.6971
3101.4750 14.6925
3181.0000 14.5754
3260.5250 14.9745
3340.0500 14.6759
3419.5750 14.8409
3499.1000 14.6143
3578.6250 14.6094
3658.1500 14.5748
3737.6750 15.0828
3817.2000 15.0260
3896.7250 15.1718
