VARIABLES = "Lag Time" "MSD"
ZONE T = "MPC 718"
0.0000 0.0000
79.5250 11.8263
159.0500 12.0942
238.5750 12.2376
318.1000 12.4832
397.6250 12.2705
477.1500 12.2731
556.6750 12.4340
636.2000 12.3353
715.7250 12.6917
795.2500 12.3114
874.7750 12.4886
954.3000 12.4465
1033.8250 12.3797
1113.3500 12.4714
1192.8750 12.5475
1272.4000 12.3672
1351.9250 12.5867
1431.4500 12.5595
1510.9750 12.5543
1590.5000 12.4637
1670.0250 12.8488
1749.5500 13.2023
1829.0750 13.1470
1908.6000 13.0373
1988.1250 12.7285
2067.6500 12.7588
2147.1750 12.8973
2226.7000 13.0154
2306.2250 12.8885
2385.7500 12.8665
2465.2750 12.7294
2544.8000 12.4934
2624.3250 12.5631
2703.8500 12.9295
2783.3750 13.0848
2862.9000 12.9856
2942.4250 12.9509
3021.9500 13.2249
3101.4750 13.0378
3181.0000 13.2203
3260.5250 13.1259
3340.0500 13.1784
3419.5750 13.1433
3499.1000 13.1391
3578.6250 13.0709
3658.1500 13.1761
3737.6750 13.1569
3817.2000 13.2532
3896.7250 13.2866
