VARIABLES = "Lag Time" "MSD"
ZONE T = "MPC 791"
0.0000 0.0000
79.5250 10.4682
159.0500 11.0827
238.5750 11.0390
318.1000 11.1989
397.6250 11.0898
477.1500 11.3458
556.6750 10.9577
636.2000 11.3849
715.7250 11.0122
795.2500 11.4966
874.7750 11.4520
954.3000 11.5249
1033.8250 11.3709
1113.3500 11.3207
1192.8750 11.3737
1272.4000 11.5025
1351.9250 11.4225
1431.4500 11.3846
1510.9750 11.4123
1590.5000 11.3170
1670.0250 11.4970
1749.5500 11.3901
1829.0750 11.5911
1908.6000 11.4570
1988.1250 11.5487
2067.6500 11.4255
2147.1750 11.3156
2226.7000 11.3552
2306.2250 11.2122
2385.7500 11.5878
2465.2750 11.4477
2544.8000 11.5392
2624.3250 11.7735
2703.8500 11.7940
2783.3750 11.7843
2862.9000 11.7617
2942.4250 11.7451
3021.9500 11.6958
3101.4750 11.6609
3181.0000 11.9389
3260.5250 11.6402
3340.0500 11.8300
3419.5750 11.6694
3499.1000 11.7828
3578.6250 11.6643
3658.1500 11.9366
3737.6750 11.6611
3817.2000 11.7282
3896.7250 11.5896
