VARIABLES = "Lag Time" "MSD"
ZONE T = "MPC 796"
0.0000 0.0000
79.5250 10.0142
159.0500 10.3454
238.5750 10.1915
318.1000 10.3942
397.6250 10.3851
477.1500 10.7464
556.6750 10.7443
636.2000 10.7292
715.7250 10.4560
795.2500 10.6316
874.7750 10.5455
954.3000 10.6213
1033.8250 10.7654
1113.3500 10.7045
1192.8750 10.8573
1272.4000 10.7924
1351.9250 10.9793
1431.4500 10.6991
1510.9750 11.0672
1590.5000 10.6803
1670.0250 10.8542
1749.5500 10.8184
1829.0750 10.8437
1908.6000 10.8169
1988.1250 10.7594
2067.6500 10.9959
2147.1750 11.0625
2226.7000 11.0016
2306.2250 11.0084
2385.7500 11.0169
2465.2750 10.8851
2544.8000 10.9889
2624.3250 11.0105
2703.8500 10.9492
2783.3750 11.0975
2862.9000 10.9068
2942.4250 11.0171
3021.9500 11.0216
3101.4750 11.2384
3181.0000 11.2118
3260.5250 11.2735
3340.0500 10.8949
3419.5750 11.0557
3499.1000 11.1272
3578.6250 11.3473
3658.1500 11.0204
3737.6750 10.9393
3817.2000 10.9166
3896.7250 11.1201
