VARIABLES = "Lag Time" "MSD"
ZONE T = "MPC 720"
0.0000 0.0000
79.5250 12.2815
159.0500 12.3376
238.5750 12.0454
318.1000 12.2898
397.6250 12.3770
477.1500 12.3179
556.6750 12.5060
636.2000 12.5612
715.7250 12.3175
795.2500 12.5472
874.7750 12.5327
954.3000 12.5200
1033.8250 12.4869
1113.3500 12.4674
1192.8750 12.8586
1272.4000 12.5545
1351.9250 12.6969
1431.4500 12.5077
1510.9750 12.5875
1590.5000 12.4933
1670.0250 12.6932
1749.5500 12.8655
1829.0750 13.0418
1908.6000 12.8036
1988.1250 12.9289
2067.6500 12.7441
2147.1750 12.8559
2226.7000 12.7603
2306.2250 12.8297
2385.7500 12.7041
2465.2750 13.0435
2544.8000 13.0471
2624.3250 12.6296
2703.8500 13.1456
2783.3750 12.9339
2862.9000 12.9672
2942.4250 13.1469
3021.9500 12.8735
3101.4750 13.0775
3181.0000 12.8623
3260.5250 12.9663
3340.0500 13.1111
3419.5750 13.0769
3499.1000 12.6885
3578.6250 13.0103
3658.1500 12.9958
3737.6750 12.9258
3817.2000 13.0622
3896.7250 12.9961
