VARIABLES = "Lag Time" "MSD"
ZONE T = "MPC 716"
0.0000 0.0000
79.5250 11.6341
159.0500 11.8461
238.5750 11.9367
318.1000 12.2390
397.6250 11.9299
477.1500 12.0476
556.6750 12.0428
636.2000 12.1095
715.7250 12.2456
795.2500 12.5063
874.7750 12.6725
954.3000 12.1623
1033.8250 12.3339
1113.3500 12.3050
1192.8750 12.6144
1272.4000 12.3772
1351.9250 12.4305
1431.4500 12.4184
1510.9750 12.4744
1590.5000 12.3875
1670.0250 12.3699
1749.5500 12.4167
1829.0750 12.8782
1908.6000 12.4578
1988.1250 12.7402
2067.6500 12.6594
2147.1750 12.6522
2226.7000 12.5637
2306.2250 12.3743
2385.7500 12.6880
2465.2750 12.7094
2544.8000 12.7742
2624.3250 12.6664
2703.8500 12.8274
2783.3750 12.6192
2862.9000 12.7589
2942.4250 12.9481
3021.9500 13.0014
3101.4750 12.6091
3181.0000 13.0175
3260.5250 12.9330
3340.0500 12.8444
3419.5750 12.9602
3499.1000 13.0458
3578.6250 12.9438
3658.1500 13.0252
3737.6750 13.1249
3817.2000 12.8752
3896.7250 13.1053
