VARIABLES = "Lag Time" "MSD"
ZONE T = "MPC 782"
0.0000 0.0000
79.5250 10.5130
159.0500 10.7209
238.5750 11.0762
318.1000 11.0689
397.6250 10.7527
477.1500 10.8904
556.6750 11.1184
636.2000 11.1927
715.7250 11.0164
795.2500 11.3866
874.7750 11.0403
954.3000 11.2290
1033.8250 11.3938
1113.3500 11.2704
1192.8750 11.2567
1272.4000 11.3203
1351.9250 11.2803
1431.4500 11.4187
1510.9750 11.6392
1590.5000 11.4722
1670.0250 11.6043
1749.5500 11.3258
1829.0750 11.5565
1908.6000 11.4759
1988.1250 11.4244
2067.6500 11.5980
2147.1750 11.5390
2226.7000 11.4407
2306.2250 11.5852
2385.7500 11.7249
2465.2750 11.7901
2544.8000 11.7178
2624.3250 11.6287
2703.8500 11.8593
2783.3750 11.7857
2862.9000 11.5672
2942.4250 11.8149
3021.9500 11.8788
3101.4750 11.7850
3181.0000 11.8194
3260.5250 11.7300
3340.0500 11.7344
3419.5750 11.4307
3499.1000 11.9516
3578.6250 11.8366
3658.1500 11.5756
3737.6750 11.6967
3817.2000 11.6480
3896.7250 11.9382
