VARIABLES = "Lag Time" "MSD"
ZONE T = "MPC 715"
0.0000 0.0000
79.5250 12.3382
159.0500 12.1034
238.5750 12.2258
318.1000 12.5133
397.6250 12.5051
477.1500 12.2617
556.6750 12.4782
636.2000 12.7419
715.7250 12.5728
795.2500 12.3747
874.7750 12.6396
954.3000 12.5925
1033.8250 12.7690
1113.3500 12.4716
1192.8750 12.4453
1272.4000 12.6765
1351.9250 12.8897
1431.4500 12.6394
1510.9750 12.9484
1590.5000 13.0322
1670.0250 13.1240
1749.5500 13.1385
1829.0750 13.2221
1908.6000 12.8787
1988.1250 13.0251
2067.6500 13.0830
2147.1750 13.1041
2226.7000 13.2560
2306.2250 13.2475
2385.7500 13.1845
2465.2750 12.8952
2544.8000 13.1346
2624.3250 12.9945
2703.8500 13.1912
2783.3750 13.3431
2862.9000 13.1122
2942.4250 13.0594
3021.9500 13.3136
3101.4750 13.0949
3181.0000 13.6638
3260.5250 13.2081
3340.0500 13.0787
3419.5750 13.5897
3499.1000 13.1955
3578.6250 13.3849
3658.1500 13.6289
3737.6750 13.0926
3817.2000 13.5966
3896.7250 13.6280
