VARIABLES = "Lag Time" "MSD"
ZONE T = "MPC 827"
0.0000 0.0000
79.5250 10.1276
159.0500 10.4462
238.5750 10.2556
318.1000 10.2011
397.6250 10.5720
477.1500 10.5258
556.6750 10.6819
636.2000 10.4157
715.7250 10.7385
795.2500 10.7032
874.7750 10.7590
954.3000 10.7138
1033.8250 10.6541
1113.3500 10.9238
1192.8750 10.8536
1272.4000 10.9001
1351.9250 10.6940
1431.4500 10.9903
1510.9750 10.9563
1590.5000 10.7622
1670.0250 10.7112
1749.5500 10.9644
1829.0750 10.8691
1908.6000 11.0388
1988.1250 10.8555
2067.6500 10.9762
2147.1750 11.1215
2226.7000 10.9270
2306.2250 11.2077
2385.7500 11.3905
2465.2750 11.1866
2544.8000 11.2705
2624.3250 11.3536
2703.8500 11.3879
2783.3750 11.3598
2862.9000 11.2855
2942.4250 10.9151
3021.9500 11.3433
3101.4750 11.2578
3181.0000 11.2762
3260.5250 11.4702
3340.0500 11.3177
3419.5750 11.5294
3499.1000 11.4740
3578.6250 11.2644
3658.1500 11.2645
3737.6750 11.2902
3817.2000 11.1991
3896.7250 11.3554
