VARIABLES = "Lag Time" "MSD"
ZONE T = "MPC 842"
0.0000 0.0000
79.5250 9.0793
159.0500 9.1081
238.5750 9.2521
318.1000 9.3051
397.6250 9.5641
477.1500 9.4968
556.6750 9.3384
636.2000 9.3702
715.7250 9.6457
795.2500 9.7708
874.7750 9.8447
954.3000 9.7777
1033.8250 9.7507
1113.3500 9.6339
1192.8750 9.7533
1272.4000 9.7077
1351.9250 9.8575
1431.4500 9.7220
1510.9750 9.6216
1590.5000 9.6014
1670.0250 9.7126
1749.5500 9.6436
1829.0750 9.7134
1908.6000 9.6834
1988.1250 9.8705
2067.6500 9.6386
2147.1750 9.7811
2226.7000 9.9384
2306.2250 9.9481
2385.7500 9.8148
2465.2750 9.6437
2544.8000 9.5668
2624.3250 9.7848
2703.8500 9.6974
2783.3750 9.7812
2862.9000 9.8863
2942.4250 9.8700
3021.9500 9.9084
3101.4750 9.8035
3181.0000 9.7975
3260.5250 9.7157
3340.0500 9.7071
3419.5750 9.7086
3499.1000 9.8039
3578.6250 9.7825
3658.1500 9.9529
3737.6750 9.8305
3817.2000 9.7473
3896.7250 9.7817
