VARIABLES = "Lag Time" "MSD"
ZONE T = "MPC 828"
0.0000 0.0000
79.5250 9.5788
159.0500 9.9357
238.5750 10.0469
318.1000 10.2236
397.6250 10.4035
477.1500 10.5153
556.6750 10.3876
636.2000 10.4044
715.7250 10.6078
795.2500 10.6335
874.7750 10.5818
954.3000 10.8415
1033.8250 10.9380
1113.3500 11.0511
1192.8750 11.0528
1272.4000 11.3675
1351.9250 11.1088
1431.4500 11.3459
1510.9750 11.4363
1590.5000 11.5258
1670.0250 11.4952
1749.5500 11.4181
1829.0750 11.6250
1908.6000 11.8809
1988.1250 11.7472
2067.6500 11.8239
2147.1750 11.6561
2226.7000 11.8569
2306.2250 12.0457
2385.7500 11.6885
2465.2750 11.9331
2544.8000 11.9496
2624.3250 12.1407
2703.8500 12.0595
2783.3750 12.2290
2862.9000 12.1125
2942.4250 12.3906
3021.9500 12.4274
3101.4750 12.5317
3181.0000 12.6521
3260.5250 12.7926
3340.0500 12.8107
3419.5750 12.8002
3499.1000 13.1544
3578.6250 13.1661
3658.1500 13.2272
3737.6750 13.1291
3817.2000 13.4453
3896.7250 13.6745
