VARIABLES = "Lag Time" "MSD"
ZONE T = "MPC 902"
0.0000 0.0000
79.5250 8.5476
159.0500 9.0360
238.5750 8.9572
318.1000 8.8491
397.6250 8.8935
477.1500 9.0063
556.6750 9.0170
636.2000 9.0166
715.7250 8.9549
795.2500 9.1722
874.7750 8.8670
954.3000 8.9081
1033.8250 9.0493
1113.3500 9.0337
1192.8750 9.1200
1272.4000 9.1935
1351.9250 9.2944
1431.4500 9.0910
1510.9750 8.9479
1590.5000 9.0503
1670.0250 9.2597
1749.5500 9.0566
1829.0750 9.0941
1908.6000 9.1770
1988.1250 9.1091
2067.6500 8.9871
2147.1750 8.9495
2226.7000 9.1076
2306.2250 9.2743
2385.7500 9.2875
2465.2750 9.2095
2544.8000 9.1894
2624.3250 8.9046
2703.8500 9.1091
2783.3750 9.2723
2862.9000 9.2447
2942.4250 9.1338
3021.9500 8.9687
3101.4750 9.2427
3181.0000 9.2426
3260.5250 9.0753
3340.0500 9.0105
3419.5750 9.4295
3499.1000 9.2589
3578.6250 9.1355
3658.1500 8.8916
3737.6750 9.0489
3817.2000 9.0255
3896.7250 9.0872
