VARIABLES = "Lag Time" "MSD"
ZONE T = "MPC 975"
0.0000 0.0000
79.5250 7.4730
159.0500 7.8382
238.5750 7.7285
318.1000 7.8892
397.6250 7.6909
477.1500 7.8173
556.6750 7.7927
636.2000 7.9581
715.7250 7.9122
795.2500 7.7981
874.7750 8.1567
954.3000 7.9237
1033.8250 7.9539
1113.3500 7.9198
1192.8750 7.8338
1272.4000 7.7692
1351.9250 7.9203
1431.4500 7.8930
1510.9750 8.0481
1590.5000 7.9405
1670.0250 7.7027
1749.5500 7.7560
1829.0750 8.0559
1908.6000 8.0663
1988.1250 8.0306
2067.6500 7.7995
2147.1750 8.1202
2226.7000 8.0622
2306.2250 7.8720
2385.7500 8.0422
2465.2750 7.9936
2544.8000 8.1325
2624.3250 7.8713
2703.8500 7.8884
2783.3750 8.0825
2862.9000 8.0681
2942.4250 7.9901
3021.9500 7.7452
3101.4750 7.8888
3181.0000 7.9493
3260.5250 7.9167
3340.0500 7.9987
3419.5750 8.0891
3499.1000 8.1102
3578.6250 8.1355
3658.1500 8.0780
3737.6750 8.0677
3817.2000 8.0517
3896.7250 8.1136
