VARIABLES = "Lag Time" "MSD"
ZONE T = "MPC 969"
0.0000 0.0000
79.5250 7.4730
159.0500 7.5281
238.5750 7.7627
318.1000 7.5860
397.6250 7.5921
477.1500 7.4675
556.6750 7.6944
636.2000 7.6351
715.7250 7.6485
795.2500 7.5926
874.7750 7.6711
954.3000 7.5412
1033.8250 7.6992
1113.3500 7.7917
1192.8750 7.5875
1272.4000 7.8037
1351.9250 7.6450
1431.4500 7.4958
1510.9750 7.6677
1590.5000 7.7510
1670.0250 7.7328
1749.5500 7.6484
1829.0750 7.8006
1908.6000 7.7872
1988.1250 7.8137
2067.6500 7.7345
2147.1750 7.8661
2226.7000 7.8672
2306.2250 7.8339
2385.7500 7.7162
2465.2750 7.9849
2544.8000 7.7376
2624.3250 7.7592
2703.8500 7.9123
2783.3750 7.9262
2862.9000 7.6583
2942.4250 7.7155
3021.9500 7.6662
3101.4750 7.6695
3181.0000 7.7040
3260.5250 7.6904
3340.0500 7.8819
3419.5750 7.7783
3499.1000 7.8077
3578.6250 7.7228
3658.1500 7.7234
3737.6750 7.7379
3817.2000 7.8489
3896.7250 7.7520
