VARIABLES = "Lag Time" "MSD"
ZONE T = "MPC 910"
0.0000 0.0000
79.5250 8.4159
159.0500 8.3593
238.5750 8.5894
318.1000 8.7170
397.6250 8.7492
477.1500 8.8595
556.6750 8.7147
636.2000 8.7633
715.7250 8.7189
795.2500 8.6364
874.7750 8.8871
954.3000 8.6278
1033.8250 8.8132
1113.3500 8.9262
1192.8750 8.8660
1272.4000 8.8415
1351.9250 8.8951
1431.4500 8.9336
1510.9750 8.8210
1590.5000 8.8259
1670.0250 8.8095
1749.5500 8.9295
1829.0750 8.8505
1908.6000 8.9387
1988.1250 8.9158
2067.6500 8.7886
2147.1750 8.7906
2226.7000 8.8927
2306.2250 8.6610
2385.7500 8.9230
2465.2750 8.9059
2544.8000 8.9107
2624.3250 8.8751
2703.8500 9.1856
2783.3750 9.3008
2862.9000 9.0772
2942.4250 8.8176
3021.9500 8.9874
3101.4750 8.8997
3181.0000 9.0321
3260.5250 9.0656
3340.0500 8.9775
3419.5750 8.9498
3499.1000 8.8407
3578.6250 9.0360
3658.1500 8.9019
3737.6750 9.0311
3817.2000 9.0631
3896.7250 8.8305
