VARIABLES = "Time" "MSD"
ZONE T = "BD 1012"
0.0000 0.0000
34.1960 7.0218
68.3920 7.0602
102.5880 6.8558
136.7840 7.1575
170.9800 6.9779
205.1760 7.0341
239.3720 7.0731
273.5680 7.2087
307.7640 7.0719
341.9600 7.0070
376.1560 6.9749
410.3520 7.1216
444.5480 7.0171
478.7440 6.9374
512.9400 6.8729
547.1360 7.1667
581.3320 7.0183
615.5280 7.1710
649.7240 6.9695
683.9200 7.0226
718.1160 6.9915
752.3120 6.9617
786.5080 7.0330
820.7040 6.9520
854.9000 7.0369
889.0960 6.8853
923.2920 6.9868
957.4880 7.0574
991.6840 6.9394
1025.8800 6.8138
1060.0760 6.8368
1094.2720 6.9232
1128.4680 7.1081
1162.6640 6.8652
1196.8600 6.9954
1231.0560 6.9846
1265.2520 7.1376
1299.4480 7.0175
1333.6440 6.9970
1367.8400 7.1154
1402.0360 6.9734
1436.2320 6.9971
1470.4280 6.9014
1504.6240 6.9306
1538.8200 7.2010
1573.0160 6.8103
1607.2120 7.0827
1641.4080 7.0338
1675.6040 7.1167
