VARIABLES = "Time" "MSD"
ZONE T = "BD 1063"
0.0000 0.0000
34.1960 6.2842
68.3920 6.5325
102.5880 6.3766
136.7840 6.3987
170.9800 6.2812
205.1760 6.4004
239.3720 6.4066
273.5680 6.4181
307.7640 6.4958
341.9600 6.5255
376.1560 6.3504
410.3520 6.3943
444.5480 6.4720
478.7440 6.3821
512.9400 6.4406
547.1360 6.5451
581.3320 6.3941
615.5280 6.2451
649.7240 6.4067
683.9200 6.2362
718.1160 6.2335
752.3120 6.5074
786.5080 6.5033
820.7040 6.5947
854.9000 6.4061
889.0960 6.3458
923.2920 6.5870
957.4880 6.3915
991.6840 6.3817
1025.8800 6.4214
1060.0760 6.3835
1094.2720 6.6241
1128.4680 6.4500
1162.6640 6.5246
1196.8600 6.2744
1231.0560 6.4193
1265.2520 6.3949
1299.4480 6.5055
1333.6440 6.2925
1367.8400 6.6368
1402.0360 6.3470
1436.2320 6.4487
1470.4280 6.4375
1504.6240 6.3186
1538.8200 6.4092
1573.0160 6.2533
1607.2120 6.4544
1641.4080 6.2974
1675.6040 6.3342
