VARIABLES = "Time" "MSD"
ZONE T = "BD 113"
0.0000 0.0000
34.1960 58.7302
68.3920 95.1645
102.5880 118.7883
136.7840 136.3251
170.9800 148.8201
205.1760 157.5938
239.3720 163.4318
273.5680 168.9652
307.7640 172.6166
341.9600 175.3633
376.1560 176.4283
410.3520 176.0331
444.5480 177.4172
478.7440 176.6828
512.9400 175.3114
547.1360 175.6038
581.3320 175.4885
615.5280 174.3458
649.7240 171.6514
683.9200 170.6988
718.1160 170.8563
752.3120 172.8089
786.5080 173.0445
820.7040 172.5362
854.9000 172.7442
889.0960 171.6820
923.2920 171.3517
957.4880 171.9147
991.6840 171.4160
1025.8800 171.1090
1060.0760 172.5953
1094.2720 173.8227
1128.4680 174.9193
1162.6640 176.9449
1196.8600 178.1921
1231.0560 178.1185
1265.2520 177.9469
1299.4480 178.0177
1333.6440 177.6851
1367.8400 177.9773
1402.0360 178.4535
1436.2320 177.8613
1470.4280 178.7616
1504.6240 179.6933
1538.8200 178.6026
1573.0160 180.2001
1607.2120 181.2700
1641.4080 180.9836
1675.6040 183.0149
