VARIABLES = "Time" "MSD"
ZONE T = "BD 12"
0.0000 0.0000
34.1960 72.6926
68.3920 146.2446
102.5880 220.9432
136.7840 295.2082
170.9800 367.2137
205.1760 438.4811
239.3720 510.9268
273.5680 585.2315
307.7640 657.4181
341.9600 730.0900
376.1560 803.0633
410.3520 876.6004
444.5480 949.1781
478.7440 1023.3300
512.9400 1097.8945
547.1360 1172.4548
581.3320 1248.9345
615.5280 1324.9539
649.7240 1402.1322
683.9200 1477.3782
718.1160 1553.8450
752.3120 1629.2801
786.5080 1704.2338
820.7040 1777.8333
854.9000 1850.5086
889.0960 1922.0814
923.2920 1995.3731
957.4880 2067.0894
991.6840 2138.3360
1025.8800 2206.7978
1060.0760 2276.9204
1094.2720 2348.0748
1128.4680 2419.4642
1162.6640 2491.7902
1196.8600 2564.5209
1231.0560 2639.8350
1265.2520 2712.9218
1299.4480 2786.9074
1333.6440 2859.2971
1367.8400 2936.3366
1402.0360 3010.9921
1436.2320 3088.5532
1470.4280 3165.5364
1504.6240 3244.9782
1538.8200 3324.6163
1573.0160 3404.6581
1607.2120 3487.2553
1641.4080 3569.4651
1675.6040 3652.0739
