VARIABLES = "Time" "MSD"
ZONE T = "BD 134"
0.0000 0.0000
34.1960 57.0946
68.3920 89.9368
102.5880 111.8674
136.7840 125.1217
170.9800 133.9046
205.1760 139.8291
239.3720 144.5341
273.5680 147.2204
307.7640 149.0411
341.9600 149.7993
376.1560 150.2091
410.3520 149.3624
444.5480 149.4016
478.7440 148.4589
512.9400 149.6933
547.1360 150.9647
581.3320 152.8474
615.5280 154.2625
649.7240 152.5265
683.9200 153.4801
718.1160 154.5255
752.3120 152.9734
786.5080 153.5761
820.7040 153.5477
854.9000 154.3195
889.0960 154.1003
923.2920 156.1915
957.4880 155.0182
991.6840 155.7877
1025.8800 156.0416
1060.0760 157.2752
1094.2720 156.6898
1128.4680 154.6829
1162.6640 154.6504
1196.8600 154.0653
1231.0560 153.3632
1265.2520 153.1724
1299.4480 154.5788
1333.6440 157.6221
1367.8400 159.8820
1402.0360 159.6944
1436.2320 159.2656
1470.4280 156.9817
1504.6240 158.3642
1538.8200 159.9347
1573.0160 162.4233
1607.2120 163.5969
1641.4080 163.1051
1675.6040 162.4463
