VARIABLES = "Time" "MSD"
ZONE T = "BD 136"
0.0000 0.0000
34.1960 55.2948
68.3920 87.8479
102.5880 111.1653
136.7840 125.4976
170.9800 134.0571
205.1760 137.4633
239.3720 141.4726
273.5680 145.6258
307.7640 147.3973
341.9600 149.4654
376.1560 149.9359
410.3520 150.2509
444.5480 148.8430
478.7440 149.1169
512.9400 148.5328
547.1360 147.3981
581.3320 146.4051
615.5280 144.5230
649.7240 146.0077
683.9200 145.2936
718.1160 145.3017
752.3120 145.8398
786.5080 144.4427
820.7040 142.5262
854.9000 145.2892
889.0960 145.7092
923.2920 147.9454
957.4880 151.1152
991.6840 151.4770
1025.8800 150.5344
1060.0760 151.5660
1094.2720 149.5463
1128.4680 148.3147
1162.6640 147.1936
1196.8600 147.9040
1231.0560 146.7980
1265.2520 146.6460
1299.4480 146.2142
1333.6440 146.2311
1367.8400 146.7861
1402.0360 146.5907
1436.2320 147.2470
1470.4280 146.3639
1504.6240 144.2113
1538.8200 143.1401
1573.0160 143.7763
1607.2120 143.4647
1641.4080 144.4351
1675.6040 146.7106
