VARIABLES = "Time" "MSD"
ZONE T = "BD 147"
0.0000 0.0000
34.1960 50.9743
68.3920 80.3223
102.5880 94.3406
136.7840 104.6472
170.9800 111.6475
205.1760 114.2814
239.3720 117.6136
273.5680 122.2357
307.7640 123.4932
341.9600 125.0819
376.1560 123.3027
410.3520 121.7607
444.5480 120.6121
478.7440 120.0567
512.9400 120.6419
547.1360 121.6748
581.3320 122.8198
615.5280 121.2022
649.7240 121.6783
683.9200 122.7028
718.1160 122.7951
752.3120 121.9782
786.5080 122.2563
820.7040 124.1631
854.9000 123.6734
889.0960 122.7854
923.2920 121.9695
957.4880 121.4106
991.6840 120.9065
1025.8800 121.7605
1060.0760 122.4310
1094.2720 121.4475
1128.4680 123.0097
1162.6640 124.3109
1196.8600 123.8644
1231.0560 124.4935
1265.2520 124.6508
1299.4480 123.5968
1333.6440 123.9517
1367.8400 122.8194
1402.0360 123.3007
1436.2320 123.2722
1470.4280 123.9040
1504.6240 125.0326
1538.8200 127.3207
1573.0160 128.0861
1607.2120 126.8166
1641.4080 127.9336
1675.6040 126.4084
