VARIABLES = "Time" "MSD"
ZONE T = "BD 193"
0.0000 0.0000
34.1960 45.6368
68.3920 65.8324
102.5880 75.0953
136.7840 81.3149
170.9800 85.0499
205.1760 85.6264
239.3720 85.4801
273.5680 83.9631
307.7640 86.1588
341.9600 86.6316
376.1560 87.0435
410.3520 87.8662
444.5480 86.9427
478.7440 86.8263
512.9400 86.7818
547.1360 85.0489
581.3320 85.3384
615.5280 85.6560
649.7240 86.9894
683.9200 87.0156
718.1160 88.7127
752.3120 88.4583
786.5080 88.1447
820.7040 88.7880
854.9000 88.6235
889.0960 87.3521
923.2920 88.0358
957.4880 87.4595
991.6840 87.5914
1025.8800 87.4173
1060.0760 86.5971
1094.2720 86.3835
1128.4680 86.3342
1162.6640 88.3527
1196.8600 87.6060
1231.0560 88.5966
1265.2520 89.1107
1299.4480 88.4108
1333.6440 89.4108
1367.8400 90.8604
1402.0360 90.4062
1436.2320 90.1276
1470.4280 89.4860
1504.6240 89.6923
1538.8200 89.4154
1573.0160 88.3380
1607.2120 89.1652
1641.4080 90.5105
1675.6040 89.9255
