VARIABLES = "Time" "MSD"
ZONE T = "BD 240"
0.0000 0.0000
34.1960 40.1505
68.3920 53.9126
102.5880 58.8949
136.7840 59.7604
170.9800 60.2387
205.1760 60.7382
239.3720 61.3942
273.5680 61.2943
307.7640 60.6048
341.9600 59.5052
376.1560 60.0727
410.3520 61.2026
444.5480 61.4916
478.7440 61.5407
512.9400 61.1832
547.1360 59.7947
581.3320 60.1393
615.5280 60.1602
649.7240 60.6456
683.9200 60.7237
718.1160 61.3014
752.3120 61.4121
786.5080 60.8086
820.7040 61.7819
854.9000 61.9441
889.0960 61.3957
923.2920 60.9606
957.4880 61.2786
991.6840 62.2221
1025.8800 61.8108
1060.0760 63.0059
1094.2720 63.3665
1128.4680 62.2488
1162.6640 62.7439
1196.8600 62.2364
1231.0560 61.4073
1265.2520 61.0577
1299.4480 61.7084
1333.6440 60.9528
1367.8400 60.8805
1402.0360 62.5597
1436.2320 61.7003
1470.4280 61.2279
1504.6240 61.6758
1538.8200 61.8619
1573.0160 61.4564
1607.2120 61.5072
1641.4080 61.5641
1675.6040 61.1618
