VARIABLES = "Time" "MSD"
ZONE T = "BD 259"
0.0000 0.0000
34.1960 38.5751
68.3920 50.3515
102.5880 55.9451
136.7840 57.6057
170.9800 57.5975
205.1760 57.3996
239.3720 56.7414
273.5680 58.0950
307.7640 57.3460
341.9600 57.5614
376.1560 57.6594
410.3520 57.9409
444.5480 58.9173
478.7440 58.4960
512.9400 57.3548
547.1360 57.2725
581.3320 56.8193
615.5280 55.2154
649.7240 56.4171
683.9200 56.6862
718.1160 57.5507
752.3120 57.1008
786.5080 57.9115
820.7040 58.0621
854.9000 56.9880
889.0960 58.2894
923.2920 57.1859
957.4880 57.9138
991.6840 58.0901
1025.8800 57.7111
1060.0760 58.1562
1094.2720 56.4714
1128.4680 57.5133
1162.6640 56.7310
1196.8600 57.0578
1231.0560 57.2699
1265.2520 58.2561
1299.4480 58.7060
1333.6440 58.3548
1367.8400 58.6801
1402.0360 58.6837
1436.2320 58.3013
1470.4280 58.2937
1504.6240 57.2087
1538.8200 57.0025
1573.0160 56.9072
1607.2120 57.9284
1641.4080 58.3359
1675.6040 57.0796
