VARIABLES = "Time" "MSD"
ZONE T = "BD 253"
0.0000 0.0000
34.1960 38.4102
68.3920 48.8064
102.5880 52.4447
136.7840 53.4810
170.9800 54.3476
205.1760 54.6808
239.3720 55.3480
273.5680 56.1827
307.7640 56.4601
341.9600 56.9549
376.1560 56.5286
410.3520 56.0312
444.5480 56.6193
478.7440 55.8840
512.9400 55.3028
547.1360 56.7916
581.3320 57.2823
615.5280 56.7382
649.7240 56.4310
683.9200 56.2723
718.1160 55.6467
752.3120 55.8782
786.5080 55.5199
820.7040 55.9644
854.9000 55.5846
889.0960 56.7943
923.2920 57.1889
957.4880 56.8966
991.6840 57.0844
1025.8800 56.1166
1060.0760 56.5988
1094.2720 56.5958
1128.4680 56.7155
1162.6640 57.9189
1196.8600 57.3267
1231.0560 57.3415
1265.2520 57.2632
1299.4480 58.2866
1333.6440 58.2525
1367.8400 58.5992
1402.0360 58.6419
1436.2320 58.4081
1470.4280 57.9908
1504.6240 55.9844
1538.8200 56.3863
1573.0160 58.3658
1607.2120 57.6567
1641.4080 57.8451
1675.6040 58.3938
