VARIABLES = "Time" "MSD"
ZONE T = "BD 275"
0.0000 0.0000
34.1960 34.5151
68.3920 43.4248
102.5880 46.9409
136.7840 48.7424
170.9800 49.1871
205.1760 48.8204
239.3720 49.3471
273.5680 48.8290
307.7640 48.5746
341.9600 48.8790
376.1560 48.4930
410.3520 48.6831
444.5480 49.3135
478.7440 48.8149
512.9400 48.8374
547.1360 49.6672
581.3320 50.2100
615.5280 50.4564
649.7240 50.4657
683.9200 49.8007
718.1160 49.3042
752.3120 49.1620
786.5080 48.9226
820.7040 50.1767
854.9000 49.8500
889.0960 50.0060
923.2920 49.8017
957.4880 49.3898
991.6840 49.3894
1025.8800 50.3656
1060.0760 49.6097
1094.2720 48.6018
1128.4680 49.9921
1162.6640 49.5904
1196.8600 50.2409
1231.0560 49.9936
1265.2520 49.8400
1299.4480 50.6503
1333.6440 50.0459
1367.8400 51.1115
1402.0360 51.1941
1436.2320 51.3975
1470.4280 50.6098
1504.6240 50.3797
1538.8200 51.4828
1573.0160 51.8145
1607.2120 51.2357
1641.4080 51.4380
1675.6040 50.7945
