VARIABLES = "Time" "MSD"
ZONE T = "BD 294"
0.0000 0.0000
34.1960 34.2003
68.3920 42.1927
102.5880 45.3174
136.7840 47.3707
170.9800 46.9866
205.1760 47.1728
239.3720 46.7180
273.5680 47.5195
307.7640 46.9587
341.9600 47.9725
376.1560 47.0170
410.3520 47.3214
444.5480 46.7196
478.7440 46.3884
512.9400 47.1086
547.1360 48.4165
581.3320 48.6217
615.5280 48.0766
649.7240 48.6890
683.9200 49.6587
718.1160 49.1117
752.3120 48.8564
786.5080 47.4942
820.7040 48.3335
854.9000 48.1344
889.0960 48.0610
923.2920 49.1780
957.4880 49.1375
991.6840 49.1497
1025.8800 49.0258
1060.0760 49.5893
1094.2720 49.6069
1128.4680 48.9625
1162.6640 49.2781
1196.8600 49.0523
1231.0560 49.5330
1265.2520 48.6679
1299.4480 48.8969
1333.6440 49.0616
1367.8400 49.3712
1402.0360 49.0584
1436.2320 49.6389
1470.4280 48.6781
1504.6240 48.9992
1538.8200 49.3238
1573.0160 49.6011
1607.2120 47.9076
1641.4080 48.9340
1675.6040 49.2059
