VARIABLES = "Time" "MSD"
ZONE T = "BD 303"
0.0000 0.0000
34.1960 33.3017
68.3920 41.6095
102.5880 43.4688
136.7840 43.2587
170.9800 43.6128
205.1760 43.9786
239.3720 44.3614
273.5680 45.5107
307.7640 44.6916
341.9600 44.7551
376.1560 44.7560
410.3520 44.6150
444.5480 44.9923
478.7440 44.4923
512.9400 45.0814
547.1360 45.4753
581.3320 45.1684
615.5280 45.5667
649.7240 45.2326
683.9200 43.9853
718.1160 45.1257
752.3120 46.0941
786.5080 44.7586
820.7040 44.9108
854.9000 45.6149
889.0960 45.2349
923.2920 46.1790
957.4880 46.7319
991.6840 45.8869
1025.8800 45.8709
1060.0760 45.5287
1094.2720 45.3393
1128.4680 45.0729
1162.6640 45.2699
1196.8600 45.6305
1231.0560 46.0272
1265.2520 46.6786
1299.4480 46.9068
1333.6440 46.9102
1367.8400 46.2320
1402.0360 46.0101
1436.2320 46.5593
1470.4280 46.2197
1504.6240 45.8803
1538.8200 45.9432
1573.0160 46.3086
1607.2120 45.7416
1641.4080 46.5915
1675.6040 46.0226
