VARIABLES = "Time" "MSD"
ZONE T = "BD 313"
0.0000 0.0000
34.1960 34.3031
68.3920 40.2282
102.5880 41.4700
136.7840 42.5422
170.9800 43.7441
205.1760 43.1571
239.3720 43.2458
273.5680 43.3258
307.7640 44.1633
341.9600 43.5965
376.1560 43.2522
410.3520 43.5554
444.5480 43.2206
478.7440 43.2151
512.9400 44.5246
547.1360 43.4287
581.3320 43.5404
615.5280 43.5450
649.7240 43.7233
683.9200 44.0453
718.1160 44.8652
752.3120 44.0494
786.5080 45.0298
820.7040 45.3274
854.9000 45.0708
889.0960 44.5854
923.2920 44.5636
957.4880 43.8471
991.6840 43.7100
1025.8800 43.5702
1060.0760 44.1593
1094.2720 43.9303
1128.4680 44.4867
1162.6640 44.3582
1196.8600 44.5405
1231.0560 44.1535
1265.2520 43.9168
1299.4480 44.5358
1333.6440 44.6058
1367.8400 45.4535
1402.0360 44.7257
1436.2320 44.4284
1470.4280 44.7235
1504.6240 45.1833
1538.8200 45.4619
1573.0160 45.2616
1607.2120 45.3075
1641.4080 44.3266
1675.6040 44.0124
