VARIABLES = "Time" "MSD"
ZONE T = "BD 314"
0.0000 0.0000
34.1960 31.8555
68.3920 37.6294
102.5880 40.5674
136.7840 40.7277
170.9800 40.1116
205.1760 40.8472
239.3720 41.0827
273.5680 41.5366
307.7640 41.4648
341.9600 42.5665
376.1560 42.0203
410.3520 41.6554
444.5480 41.3652
478.7440 40.9003
512.9400 42.3630
547.1360 41.9837
581.3320 41.9321
615.5280 41.4751
649.7240 41.5494
683.9200 41.3896
718.1160 42.2474
752.3120 42.3601
786.5080 42.0929
820.7040 41.9281
854.9000 42.0857
889.0960 42.0809
923.2920 41.8374
957.4880 42.8240
991.6840 43.4828
1025.8800 42.5334
1060.0760 42.5984
1094.2720 42.9136
1128.4680 42.5316
1162.6640 42.7640
1196.8600 42.3486
1231.0560 42.4773
1265.2520 42.9044
1299.4480 42.6729
1333.6440 42.8812
1367.8400 42.4060
1402.0360 43.1629
1436.2320 42.8228
1470.4280 42.9978
1504.6240 42.1205
1538.8200 41.8521
1573.0160 41.8805
1607.2120 42.6621
1641.4080 42.7529
1675.6040 43.4781
