VARIABLES = "Time" "MSD"
ZONE T = "BD 378"
0.0000 0.0000
34.1960 24.7159
68.3920 28.5296
102.5880 28.3602
136.7840 29.0580
170.9800 29.1027
205.1760 28.6295
239.3720 29.4140
273.5680 29.4473
307.7640 29.6676
341.9600 29.1535
376.1560 29.9105
410.3520 30.0842
444.5480 30.2995
478.7440 30.4497
512.9400 30.5040
547.1360 29.9275
581.3320 29.4121
615.5280 29.7899
649.7240 29.6365
683.9200 30.5613
718.1160 29.9848
752.3120 30.1480
786.5080 30.1852
820.7040 29.9046
854.9000 29.4900
889.0960 30.2055
923.2920 29.6645
957.4880 30.4378
991.6840 30.5711
1025.8800 30.0867
1060.0760 29.3202
1094.2720 30.0771
1128.4680 30.1575
1162.6640 30.5758
1196.8600 30.4542
1231.0560 30.2135
1265.2520 30.2614
1299.4480 30.3751
1333.6440 30.8144
1367.8400 31.1357
1402.0360 30.5062
1436.2320 30.2440
1470.4280 30.1212
1504.6240 30.2389
1538.8200 30.2627
1573.0160 30.7736
1607.2120 29.5823
1641.4080 30.2954
1675.6040 30.4263
