VARIABLES = "Time" "MSD"
ZONE T = "BD 373"
0.0000 0.0000
34.1960 25.2855
68.3920 28.7194
102.5880 29.5614
136.7840 29.1753
170.9800 30.2623
205.1760 29.9493
239.3720 29.4842
273.5680 29.5403
307.7640 29.9193
341.9600 29.8331
376.1560 30.1409
410.3520 29.5097
444.5480 30.1422
478.7440 29.5103
512.9400 29.8705
547.1360 29.4691
581.3320 30.8642
615.5280 30.2511
649.7240 30.6034
683.9200 30.7390
718.1160 30.6870
752.3120 30.8005
786.5080 30.9032
820.7040 30.4922
854.9000 30.6531
889.0960 31.2484
923.2920 30.8783
957.4880 30.8947
991.6840 30.5783
1025.8800 30.3969
1060.0760 30.6355
1094.2720 30.7568
1128.4680 31.2680
1162.6640 31.5428
1196.8600 31.0470
1231.0560 30.6990
1265.2520 31.0037
1299.4480 30.4207
1333.6440 30.9152
1367.8400 31.2973
1402.0360 30.4729
1436.2320 30.6062
1470.4280 30.9565
1504.6240 31.5211
1538.8200 31.2752
1573.0160 30.8763
1607.2120 31.5574
1641.4080 30.9906
1675.6040 30.8286
