VARIABLES = "Time" "MSD"
ZONE T = "BD 374"
0.0000 0.0000
34.1960 25.6055
68.3920 28.8106
102.5880 29.5603
136.7840 29.5315
170.9800 30.5819
205.1760 30.2602
239.3720 30.1990
273.5680 30.4836
307.7640 29.7635
341.9600 30.3697
376.1560 30.5996
410.3520 30.7859
444.5480 30.6977
478.7440 30.9848
512.9400 30.8688
547.1360 30.8921
581.3320 30.7421
615.5280 30.7166
649.7240 30.9703
683.9200 30.9367
718.1160 31.2450
752.3120 30.7760
786.5080 30.5467
820.7040 30.9320
854.9000 31.0691
889.0960 30.6114
923.2920 30.9434
957.4880 31.3771
991.6840 31.3402
1025.8800 31.5883
1060.0760 31.1777
1094.2720 31.5595
1128.4680 30.8290
1162.6640 30.6607
1196.8600 31.4851
1231.0560 31.6285
1265.2520 31.6527
1299.4480 31.3978
1333.6440 30.7806
1367.8400 31.1353
1402.0360 31.2182
1436.2320 31.5165
1470.4280 31.4312
1504.6240 31.0699
1538.8200 31.1922
1573.0160 31.6117
1607.2120 31.0849
1641.4080 30.6628
1675.6040 31.1681
