VARIABLES = "Time" "MSD"
ZONE T = "BD 390"
0.0000 0.0000
34.1960 24.1861
68.3920 27.9848
102.5880 28.5877
136.7840 28.4056
170.9800 28.3256
205.1760 28.6575
239.3720 29.2547
273.5680 29.1657
307.7640 28.6656
341.9600 28.9792
376.1560 29.0792
410.3520 28.6184
444.5480 28.6199
478.7440 29.6324
512.9400 29.0627
547.1360 29.5718
581.3320 29.8803
615.5280 29.8301
649.7240 29.3217
683.9200 29.4031
718.1160 29.1616
752.3120 29.2691
786.5080 29.5760
820.7040 29.8916
854.9000 29.7669
889.0960 30.1256
923.2920 30.0462
957.4880 29.6119
991.6840 29.2540
1025.8800 29.3827
1060.0760 29.9784
1094.2720 29.5194
1128.4680 29.0340
1162.6640 29.3236
1196.8600 30.1781
1231.0560 30.8380
1265.2520 30.0762
1299.4480 30.3642
1333.6440 30.0103
1367.8400 30.5446
1402.0360 29.9991
1436.2320 30.2819
1470.4280 29.9286
1504.6240 29.5603
1538.8200 30.1827
1573.0160 29.5415
1607.2120 30.3622
1641.4080 30.5477
1675.6040 30.0518
