VARIABLES = "Time" "MSD"
ZONE T = "BD 402"
0.0000 0.0000
34.1960 24.1463
68.3920 26.6025
102.5880 26.8807
136.7840 27.8265
170.9800 28.1255
205.1760 28.0558
239.3720 28.2305
273.5680 28.0021
307.7640 28.1971
341.9600 27.7371
376.1560 28.9215
410.3520 28.8536
444.5480 27.9388
478.7440 27.9773
512.9400 28.1821
547.1360 28.1890
581.3320 28.4814
615.5280 28.2181
649.7240 28.7779
683.9200 28.3858
718.1160 28.9008
752.3120 28.0968
786.5080 28.6197
820.7040 27.7832
854.9000 27.9071
889.0960 28.1364
923.2920 28.0963
957.4880 28.4357
991.6840 27.9823
1025.8800 28.2008
1060.0760 28.3067
1094.2720 28.3713
1128.4680 28.5139
1162.6640 28.5906
1196.8600 28.8233
1231.0560 28.7995
1265.2520 28.5810
1299.4480 28.8530
1333.6440 29.1532
1367.8400 28.5476
1402.0360 28.2528
1436.2320 28.0974
1470.4280 28.7344
1504.6240 28.9563
1538.8200 29.5611
1573.0160 28.8787
1607.2120 29.0959
1641.4080 28.6335
1675.6040 29.0593
