VARIABLES = "Time" "MSD"
ZONE T = "BD 423"
0.0000 0.0000
34.1960 21.6694
68.3920 23.6783
102.5880 24.3425
136.7840 24.0275
170.9800 24.1141
205.1760 24.2656
239.3720 24.6735
273.5680 24.2305
307.7640 24.3401
341.9600 25.1661
376.1560 24.6336
410.3520 25.0195
444.5480 25.0694
478.7440 24.8992
512.9400 25.1449
547.1360 24.7945
581.3320 25.1570
615.5280 25.0233
649.7240 25.7641
683.9200 25.3277
718.1160 25.8624
752.3120 25.4417
786.5080 25.5935
820.7040 25.4730
854.9000 25.6281
889.0960 25.9857
923.2920 25.5486
957.4880 25.4070
991.6840 25.5456
1025.8800 25.5653
1060.0760 25.8313
1094.2720 25.3892
1128.4680 25.2888
1162.6640 25.5710
1196.8600 25.5792
1231.0560 25.6820
1265.2520 25.9891
1299.4480 26.0618
1333.6440 26.1302
1367.8400 25.8253
1402.0360 25.8515
1436.2320 26.3100
1470.4280 26.2709
1504.6240 25.9337
1538.8200 25.6474
1573.0160 25.9114
1607.2120 25.3110
1641.4080 25.6787
1675.6040 25.2375
