VARIABLES = "Time" "MSD"
ZONE T = "BD 432"
0.0000 0.0000
34.1960 21.9859
68.3920 23.8372
102.5880 24.3251
136.7840 24.6961
170.9800 23.8824
205.1760 24.4117
239.3720 24.4451
273.5680 24.5565
307.7640 24.9792
341.9600 24.5098
376.1560 24.7456
410.3520 24.8380
444.5480 25.0694
478.7440 25.0293
512.9400 25.1225
547.1360 24.9289
581.3320 24.7430
615.5280 24.6713
649.7240 25.1613
683.9200 24.6447
718.1160 24.9303
752.3120 25.0152
786.5080 25.0056
820.7040 25.2857
854.9000 25.3669
889.0960 24.6386
923.2920 25.2503
957.4880 25.4660
991.6840 25.2440
1025.8800 24.9355
1060.0760 24.7445
1094.2720 25.1811
1128.4680 24.8413
1162.6640 25.3330
1196.8600 25.0199
1231.0560 25.0321
1265.2520 24.9286
1299.4480 24.7360
1333.6440 25.6773
1367.8400 24.8121
1402.0360 25.6176
1436.2320 25.2367
1470.4280 25.2680
1504.6240 25.3463
1538.8200 24.8358
1573.0160 25.1452
1607.2120 25.6696
1641.4080 25.7613
1675.6040 25.4095
