VARIABLES = "Time" "MSD"
ZONE T = "BD 465"
0.0000 0.0000
34.1960 19.6566
68.3920 21.3974
102.5880 21.7529
136.7840 21.8191
170.9800 21.7126
205.1760 22.1877
239.3720 22.1865
273.5680 21.7768
307.7640 22.1852
341.9600 22.3031
376.1560 22.3591
410.3520 22.4254
444.5480 22.2285
478.7440 22.3229
512.9400 22.3287
547.1360 22.1089
581.3320 23.2177
615.5280 22.1166
649.7240 22.5204
683.9200 22.7434
718.1160 22.5570
752.3120 22.5956
786.5080 22.9478
820.7040 22.7288
854.9000 22.3711
889.0960 22.6344
923.2920 23.0470
957.4880 23.0733
991.6840 22.7700
1025.8800 22.8670
1060.0760 22.8396
1094.2720 23.1130
1128.4680 23.0919
1162.6640 22.7028
1196.8600 23.1896
1231.0560 22.7975
1265.2520 22.0557
1299.4480 22.7382
1333.6440 22.6560
1367.8400 23.0482
1402.0360 23.0791
1436.2320 23.1359
1470.4280 22.7391
1504.6240 22.8074
1538.8200 22.3979
1573.0160 22.8787
1607.2120 23.2571
1641.4080 22.6483
1675.6040 23.0851
