VARIABLES = "Time" "MSD"
ZONE T = "BD 470"
0.0000 0.0000
34.1960 18.2351
68.3920 19.5974
102.5880 19.7413
136.7840 20.2326
170.9800 20.4554
205.1760 20.0130
239.3720 20.4926
273.5680 20.0502
307.7640 20.5793
341.9600 20.8258
376.1560 20.4576
410.3520 20.5373
444.5480 20.2290
478.7440 20.5275
512.9400 20.5233
547.1360 20.5375
581.3320 20.8281
615.5280 20.7500
649.7240 20.4106
683.9200 20.8167
718.1160 20.4391
752.3120 20.7113
786.5080 20.5285
820.7040 21.0919
854.9000 20.5051
889.0960 20.7444
923.2920 20.8859
957.4880 21.1431
991.6840 20.7048
1025.8800 20.2415
1060.0760 21.0780
1094.2720 20.4644
1128.4680 20.5465
1162.6640 20.8820
1196.8600 20.7292
1231.0560 21.1462
1265.2520 20.6744
1299.4480 20.5057
1333.6440 20.6716
1367.8400 20.5462
1402.0360 21.0114
1436.2320 21.0553
1470.4280 20.5740
1504.6240 20.6380
1538.8200 20.4298
1573.0160 20.8787
1607.2120 20.9658
1641.4080 21.0555
1675.6040 20.8967
