VARIABLES = "Time" "MSD"
ZONE T = "BD 489"
0.0000 0.0000
34.1960 17.6220
68.3920 18.3056
102.5880 18.7841
136.7840 19.1516
170.9800 18.8572
205.1760 19.0781
239.3720 18.9989
273.5680 18.9716
307.7640 19.4735
341.9600 19.0671
376.1560 19.6824
410.3520 19.6220
444.5480 19.3111
478.7440 19.7593
512.9400 19.2178
547.1360 19.4318
581.3320 19.4390
615.5280 19.0415
649.7240 19.5352
683.9200 19.5739
718.1160 19.7056
752.3120 19.5888
786.5080 19.8373
820.7040 20.0299
854.9000 20.1430
889.0960 19.8673
923.2920 20.1604
957.4880 19.7158
991.6840 19.6095
1025.8800 19.5798
1060.0760 19.8248
1094.2720 19.6049
1128.4680 20.0537
1162.6640 19.6688
1196.8600 20.0836
1231.0560 19.6575
1265.2520 19.8804
1299.4480 19.9014
1333.6440 19.7665
1367.8400 19.8246
1402.0360 19.6372
1436.2320 19.4921
1470.4280 19.9186
1504.6240 19.8518
1538.8200 20.2195
1573.0160 19.7907
1607.2120 19.8360
1641.4080 19.9847
1675.6040 20.5830
