VARIABLES = "Time" "MSD"
ZONE T = "BD 516"
0.0000 0.0000
34.1960 16.7744
68.3920 17.8865
102.5880 17.8720
136.7840 18.3146
170.9800 18.1671
205.1760 18.2919
239.3720 18.1621
273.5680 18.3529
307.7640 18.3908
341.9600 18.2342
376.1560 18.1847
410.3520 18.5589
444.5480 18.6318
478.7440 18.6530
512.9400 18.2335
547.1360 18.4044
581.3320 18.6738
615.5280 18.7863
649.7240 18.7161
683.9200 18.7996
718.1160 18.4061
752.3120 18.8343
786.5080 18.5004
820.7040 18.7427
854.9000 18.2830
889.0960 18.4772
923.2920 18.3409
957.4880 18.5646
991.6840 18.7163
1025.8800 18.6658
1060.0760 18.4195
1094.2720 19.0117
1128.4680 18.8060
1162.6640 18.7077
1196.8600 19.0361
1231.0560 18.7212
1265.2520 18.6837
1299.4480 18.5692
1333.6440 18.9476
1367.8400 18.6926
1402.0360 18.6349
1436.2320 18.5828
1470.4280 19.0516
1504.6240 18.7524
1538.8200 18.6136
1573.0160 18.6680
1607.2120 18.8026
1641.4080 18.8108
1675.6040 18.9781
