VARIABLES = "Time" "MSD"
ZONE T = "BD 525"
0.0000 0.0000
34.1960 17.9537
68.3920 18.9518
102.5880 19.0998
136.7840 19.6009
170.9800 19.2726
205.1760 18.9965
239.3720 19.5081
273.5680 18.9258
307.7640 19.3809
341.9600 19.3524
376.1560 19.6018
410.3520 19.5198
444.5480 19.0761
478.7440 19.0658
512.9400 19.4934
547.1360 19.5337
581.3320 19.9045
615.5280 19.8786
649.7240 19.2297
683.9200 19.6623
718.1160 19.9923
752.3120 19.9058
786.5080 19.5181
820.7040 19.4390
854.9000 20.0733
889.0960 19.8839
923.2920 19.4452
957.4880 19.6599
991.6840 20.1834
1025.8800 19.4175
1060.0760 19.4023
1094.2720 19.6791
1128.4680 19.8294
1162.6640 19.6470
1196.8600 20.0689
1231.0560 19.6837
1265.2520 19.8793
1299.4480 19.9606
1333.6440 19.9965
1367.8400 19.6563
1402.0360 19.9284
1436.2320 19.7632
1470.4280 19.7157
1504.6240 20.2304
1538.8200 20.2754
1573.0160 19.9609
1607.2120 20.0579
1641.4080 19.9313
1675.6040 19.8239
