VARIABLES = "Time" "MSD"
ZONE T = "BD 582"
0.0000 0.0000
34.1960 15.5004
68.3920 16.3114
102.5880 16.2682
136.7840 16.0704
170.9800 16.7347
205.1760 16.5469
239.3720 16.2637
273.5680 16.7770
307.7640 16.2771
341.9600 16.1926
376.1560 15.9757
410.3520 16.0681
444.5480 16.2025
478.7440 16.1395
512.9400 16.5719
547.1360 16.4880
581.3320 16.5410
615.5280 16.1475
649.7240 16.7556
683.9200 16.4783
718.1160 16.5653
752.3120 16.2880
786.5080 16.0301
820.7040 16.6579
854.9000 16.7563
889.0960 16.1965
923.2920 16.3222
957.4880 16.4369
991.6840 16.6321
1025.8800 16.4530
1060.0760 16.7189
1094.2720 16.7517
1128.4680 16.5258
1162.6640 16.4916
1196.8600 16.0305
1231.0560 16.3578
1265.2520 16.1462
1299.4480 16.6000
1333.6440 16.3899
1367.8400 16.6398
1402.0360 16.5778
1436.2320 17.1166
1470.4280 16.5272
1504.6240 16.7441
1538.8200 16.5620
1573.0160 16.4612
1607.2120 16.7958
1641.4080 16.2373
1675.6040 16.4823
