VARIABLES = "Time" "MSD"
ZONE T = "BD 594"
0.0000 0.0000
34.1960 14.6859
68.3920 15.4611
102.5880 15.1346
136.7840 15.9088
170.9800 16.0978
205.1760 15.7051
239.3720 15.6343
273.5680 15.4453
307.7640 15.5103
341.9600 15.7352
376.1560 16.0998
410.3520 15.7210
444.5480 15.7078
478.7440 15.9404
512.9400 15.8094
547.1360 16.0968
581.3320 15.7367
615.5280 15.8996
649.7240 15.7933
683.9200 15.5738
718.1160 15.6167
752.3120 16.0418
786.5080 16.2631
820.7040 15.9039
854.9000 15.8254
889.0960 15.9692
923.2920 15.8320
957.4880 15.8969
991.6840 15.8920
1025.8800 15.8496
1060.0760 15.6855
1094.2720 15.8759
1128.4680 15.7864
1162.6640 15.4449
1196.8600 15.7746
1231.0560 15.6854
1265.2520 15.7675
1299.4480 15.5489
1333.6440 15.8288
1367.8400 15.5227
1402.0360 16.0607
1436.2320 15.7547
1470.4280 15.7970
1504.6240 15.9699
1538.8200 15.9967
1573.0160 16.4016
1607.2120 16.2585
1641.4080 15.8689
1675.6040 16.1090
