VARIABLES = "Time" "MSD"
ZONE T = "BD 591"
0.0000 0.0000
34.1960 14.3774
68.3920 15.1953
102.5880 15.5671
136.7840 15.2382
170.9800 15.5999
205.1760 15.4489
239.3720 15.2938
273.5680 15.4201
307.7640 15.3777
341.9600 15.7721
376.1560 15.8698
410.3520 15.8928
444.5480 15.9963
478.7440 15.8940
512.9400 15.6530
547.1360 15.6273
581.3320 16.0015
615.5280 16.0395
649.7240 15.8402
683.9200 15.8445
718.1160 15.6650
752.3120 15.7897
786.5080 16.1613
820.7040 15.8690
854.9000 16.0219
889.0960 16.2150
923.2920 16.0751
957.4880 16.3035
991.6840 15.7872
1025.8800 15.6302
1060.0760 15.7060
1094.2720 15.4964
1128.4680 15.7445
1162.6640 16.0441
1196.8600 15.9092
1231.0560 16.0008
1265.2520 15.7757
1299.4480 15.6383
1333.6440 15.8970
1367.8400 16.1329
1402.0360 15.8744
1436.2320 15.9095
1470.4280 15.9670
1504.6240 16.2559
1538.8200 15.8382
1573.0160 16.0416
1607.2120 16.0696
1641.4080 16.3250
1675.6040 16.0879
