VARIABLES = "Time" "MSD"
ZONE T = "BD 612"
0.0000 0.0000
34.1960 14.6167
68.3920 15.2728
102.5880 15.5299
136.7840 15.6548
170.9800 15.4524
205.1760 15.4235
239.3720 15.8926
273.5680 16.1178
307.7640 15.7518
341.9600 15.7896
376.1560 15.5065
410.3520 15.5098
444.5480 16.2184
478.7440 15.8226
512.9400 15.8998
547.1360 15.7247
581.3320 15.6563
615.5280 15.6027
649.7240 15.9778
683.9200 15.7884
718.1160 15.6186
752.3120 15.8481
786.5080 15.9554
820.7040 15.6908
854.9000 15.9707
889.0960 15.5466
923.2920 15.8288
957.4880 15.9770
991.6840 15.8394
1025.8800 15.6078
1060.0760 15.7802
1094.2720 15.2808
1128.4680 15.8211
1162.6640 15.8915
1196.8600 15.7711
1231.0560 15.9053
1265.2520 15.9957
1299.4480 16.0821
1333.6440 16.0469
1367.8400 16.2048
1402.0360 15.9796
1436.2320 15.6946
1470.4280 15.9762
1504.6240 16.0540
1538.8200 16.0028
1573.0160 15.7154
1607.2120 15.7208
1641.4080 16.0048
1675.6040 16.2387
