VARIABLES = "Time" "MSD"
ZONE T = "BD 691"
0.0000 0.0000
34.1960 12.1620
68.3920 12.5825
102.5880 12.7324
136.7840 12.4391
170.9800 12.6000
205.1760 12.7412
239.3720 12.6173
273.5680 12.3896
307.7640 12.7411
341.9600 12.7089
376.1560 12.9716
410.3520 12.5497
444.5480 12.8978
478.7440 12.8231
512.9400 12.5388
547.1360 12.6284
581.3320 12.6925
615.5280 12.7182
649.7240 13.0144
683.9200 12.8648
718.1160 13.0348
752.3120 12.9252
786.5080 12.6282
820.7040 12.5919
854.9000 12.7320
889.0960 12.7857
923.2920 12.5991
957.4880 12.8854
991.6840 12.6468
1025.8800 12.5975
1060.0760 12.9646
1094.2720 12.5065
1128.4680 12.6577
1162.6640 13.0360
1196.8600 12.9627
1231.0560 12.8629
1265.2520 12.8817
1299.4480 12.7913
1333.6440 12.6387
1367.8400 12.4448
1402.0360 12.4773
1436.2320 12.7884
1470.4280 12.9698
1504.6240 12.4956
1538.8200 13.0107
1573.0160 13.0098
1607.2120 12.8113
1641.4080 12.8989
1675.6040 13.1483
