VARIABLES = "Time" "MSD"
ZONE T = "BD 729"
0.0000 0.0000
34.1960 11.0719
68.3920 11.1794
102.5880 11.2700
136.7840 11.3446
170.9800 11.3649
205.1760 11.1444
239.3720 11.3688
273.5680 11.6822
307.7640 11.4296
341.9600 11.5281
376.1560 11.1156
410.3520 11.0788
444.5480 11.2157
478.7440 11.3217
512.9400 11.1353
547.1360 11.2566
581.3320 11.3299
615.5280 11.3323
649.7240 11.3296
683.9200 11.1016
718.1160 11.1466
752.3120 11.2276
786.5080 11.2646
820.7040 11.4140
854.9000 11.4140
889.0960 11.3468
923.2920 11.4976
957.4880 11.6362
991.6840 11.3684
1025.8800 11.5886
1060.0760 11.1808
1094.2720 11.3368
1128.4680 11.2159
1162.6640 11.2720
1196.8600 11.4745
1231.0560 11.1870
1265.2520 11.5680
1299.4480 11.5089
1333.6440 11.2244
1367.8400 11.1473
1402.0360 11.3020
1436.2320 11.4420
1470.4280 11.3733
1504.6240 11.3800
1538.8200 11.3176
1573.0160 11.3680
1607.2120 11.2418
1641.4080 11.3733
1675.6040 11.3654
