VARIABLES = "Time" "MSD"
ZONE T = "BD 720"
0.0000 0.0000
34.1960 11.5669
68.3920 11.8784
102.5880 12.0500
136.7840 11.7957
170.9800 12.1558
205.1760 12.1524
239.3720 12.1191
273.5680 12.0820
307.7640 12.1882
341.9600 12.4209
376.1560 11.9396
410.3520 11.9667
444.5480 11.9643
478.7440 11.9757
512.9400 11.9814
547.1360 12.0638
581.3320 12.1934
615.5280 12.4376
649.7240 12.1883
683.9200 12.3245
718.1160 12.1914
752.3120 12.0657
786.5080 12.0671
820.7040 12.0438
854.9000 11.7898
889.0960 12.1300
923.2920 12.0555
957.4880 12.0997
991.6840 12.0371
1025.8800 12.0689
1060.0760 12.1603
1094.2720 12.0614
1128.4680 12.1220
1162.6640 12.1697
1196.8600 12.1697
1231.0560 12.3383
1265.2520 12.1020
1299.4480 12.1975
1333.6440 12.2147
1367.8400 12.2395
1402.0360 12.0536
1436.2320 12.2620
1470.4280 12.2492
1504.6240 12.1857
1538.8200 12.0329
1573.0160 12.0881
1607.2120 12.3235
1641.4080 12.3269
1675.6040 12.4973
