VARIABLES = "Time" "MSD"
ZONE T = "BD 744"
0.0000 0.0000
34.1960 10.7890
68.3920 10.9241
102.5880 10.9528
136.7840 11.0697
170.9800 10.6801
205.1760 11.2949
239.3720 11.0909
273.5680 10.7236
307.7640 11.1494
341.9600 10.8266
376.1560 11.0691
410.3520 11.2552
444.5480 11.1181
478.7440 11.1143
512.9400 11.0348
547.1360 10.8482
581.3320 11.3451
615.5280 11.1052
649.7240 10.8784
683.9200 10.9401
718.1160 11.3785
752.3120 11.1584
786.5080 11.3010
820.7040 11.1045
854.9000 10.9389
889.0960 11.3932
923.2920 11.3268
957.4880 11.2653
991.6840 11.2979
1025.8800 11.2582
1060.0760 11.4886
1094.2720 11.3828
1128.4680 11.2075
1162.6640 11.1260
1196.8600 11.1698
1231.0560 11.2728
1265.2520 11.2723
1299.4480 11.3164
1333.6440 11.3115
1367.8400 11.0842
1402.0360 11.0877
1436.2320 11.3186
1470.4280 11.3046
1504.6240 11.2780
1538.8200 11.3148
1573.0160 11.2944
1607.2120 11.4608
1641.4080 11.1843
1675.6040 10.9605
