VARIABLES = "Time" "MSD"
ZONE T = "BD 751"
0.0000 0.0000
34.1960 10.3509
68.3920 10.7799
102.5880 10.7864
136.7840 10.8945
170.9800 10.9367
205.1760 11.1567
239.3720 10.8096
273.5680 10.9856
307.7640 11.0768
341.9600 10.6683
376.1560 11.0101
410.3520 10.8908
444.5480 11.0964
478.7440 10.9697
512.9400 10.9176
547.1360 11.1418
581.3320 11.0607
615.5280 11.1132
649.7240 11.2320
683.9200 11.2858
718.1160 11.1865
752.3120 11.1030
786.5080 11.1372
820.7040 11.0263
854.9000 11.0745
889.0960 11.0325
923.2920 11.0305
957.4880 10.9939
991.6840 11.1527
1025.8800 11.0307
1060.0760 11.1724
1094.2720 11.2431
1128.4680 11.1397
1162.6640 11.1914
1196.8600 10.9603
1231.0560 11.2216
1265.2520 11.3232
1299.4480 11.2068
1333.6440 11.1681
1367.8400 11.0656
1402.0360 11.0376
1436.2320 11.1485
1470.4280 11.2070
1504.6240 11.3096
1538.8200 11.0847
1573.0160 10.9439
1607.2120 11.1357
1641.4080 11.0661
1675.6040 11.1668
