VARIABLES = "Time" "MSD"
ZONE T = "BD 791"
0.0000 0.0000
34.1960 10.0207
68.3920 10.0795
102.5880 10.0697
136.7840 10.1473
170.9800 10.2854
205.1760 10.3215
239.3720 10.0570
273.5680 10.2928
307.7640 10.1577
341.9600 10.0469
376.1560 10.3036
410.3520 10.1092
444.5480 10.3400
478.7440 10.3093
512.9400 10.4490
547.1360 10.2269
581.3320 10.4441
615.5280 10.4693
649.7240 10.1410
683.9200 10.3717
718.1160 9.9038
752.3120 10.4305
786.5080 10.2637
820.7040 10.1870
854.9000 10.1050
889.0960 10.3023
923.2920 10.3678
957.4880 10.1847
991.6840 10.5395
1025.8800 10.3054
1060.0760 10.3356
1094.2720 10.5537
1128.4680 10.4482
1162.6640 10.4044
1196.8600 10.4910
1231.0560 10.2605
1265.2520 10.2017
1299.4480 10.4055
1333.6440 10.3747
1367.8400 10.3088
1402.0360 10.3938
1436.2320 10.3833
1470.4280 10.3415
1504.6240 10.0231
1538.8200 10.2739
1573.0160 10.3497
1607.2120 10.5063
1641.4080 10.2132
1675.6040 10.4439
