VARIABLES = "Time" "MSD"
ZONE T = "BD 807"
0.0000 0.0000
34.1960 9.4316
68.3920 9.6550
102.5880 9.7656
136.7840 9.9830
170.9800 9.9850
205.1760 9.8054
239.3720 9.5548
273.5680 9.8626
307.7640 9.6276
341.9600 9.7637
376.1560 10.1263
410.3520 9.9494
444.5480 10.0137
478.7440 9.8783
512.9400 9.9341
547.1360 9.9495
581.3320 9.9688
615.5280 10.2250
649.7240 10.0374
683.9200 9.9443
718.1160 9.9367
752.3120 9.9242
786.5080 9.8252
820.7040 10.1534
854.9000 9.8984
889.0960 10.0247
923.2920 10.0260
957.4880 9.9066
991.6840 9.9589
1025.8800 10.0977
1060.0760 9.9213
1094.2720 10.0974
1128.4680 9.8359
1162.6640 10.0730
1196.8600 10.0426
1231.0560 10.1098
1265.2520 10.0813
1299.4480 10.2062
1333.6440 10.0303
1367.8400 10.1496
1402.0360 10.3177
1436.2320 10.2173
1470.4280 10.2351
1504.6240 10.0721
1538.8200 10.0492
1573.0160 9.8403
1607.2120 10.1383
1641.4080 9.9294
1675.6040 10.0772
