VARIABLES = "Time" "MSD"
ZONE T = "BD 811"
0.0000 0.0000
34.1960 9.2424
68.3920 9.4979
102.5880 9.3728
136.7840 9.5285
170.9800 9.7080
205.1760 9.5782
239.3720 9.6428
273.5680 9.6950
307.7640 9.4250
341.9600 9.6295
376.1560 9.7922
410.3520 9.8451
444.5480 9.6175
478.7440 9.7938
512.9400 9.5487
547.1360 9.5534
581.3320 9.6255
615.5280 9.5716
649.7240 9.5497
683.9200 9.4879
718.1160 9.7394
752.3120 9.6534
786.5080 9.8225
820.7040 9.5209
854.9000 9.7051
889.0960 9.4632
923.2920 9.4741
957.4880 9.6276
991.6840 9.8669
1025.8800 9.7252
1060.0760 9.8468
1094.2720 9.8341
1128.4680 9.5648
1162.6640 9.4693
1196.8600 9.9117
1231.0560 9.7150
1265.2520 9.7776
1299.4480 9.6348
1333.6440 9.8963
1367.8400 9.7040
1402.0360 9.6943
1436.2320 9.6228
1470.4280 9.6568
1504.6240 9.5815
1538.8200 9.6794
1573.0160 9.6972
1607.2120 9.7786
1641.4080 9.7864
1675.6040 9.9242
