VARIABLES = "Time" "MSD"
ZONE T = "BD 861"
0.0000 0.0000
34.1960 8.6953
68.3920 9.0414
102.5880 8.8040
136.7840 8.9359
170.9800 9.2825
205.1760 9.0541
239.3720 8.9922
273.5680 8.8620
307.7640 9.0560
341.9600 9.3217
376.1560 8.9550
410.3520 9.0710
444.5480 9.0256
478.7440 8.8817
512.9400 8.9877
547.1360 9.3544
581.3320 9.1887
615.5280 9.1872
649.7240 8.7999
683.9200 9.0725
718.1160 9.2034
752.3120 9.1356
786.5080 8.9330
820.7040 9.3527
854.9000 9.2603
889.0960 9.0471
923.2920 9.0340
957.4880 9.0987
991.6840 9.0389
1025.8800 9.1619
1060.0760 8.8861
1094.2720 9.1566
1128.4680 9.1262
1162.6640 9.0795
1196.8600 9.1390
1231.0560 8.9684
1265.2520 9.0843
1299.4480 9.0387
1333.6440 9.2622
1367.8400 9.0870
1402.0360 8.9444
1436.2320 9.3058
1470.4280 9.1355
1504.6240 9.0948
1538.8200 9.0754
1573.0160 9.0242
1607.2120 9.1542
1641.4080 9.1012
1675.6040 9.0936
