VARIABLES = "Time" "MSD"
ZONE T = "BD 863"
0.0000 0.0000
34.1960 8.3625
68.3920 8.7672
102.5880 8.5022
136.7840 8.7560
170.9800 8.6957
205.1760 8.7941
239.3720 8.8448
273.5680 8.6819
307.7640 8.7443
341.9600 8.7122
376.1560 8.7284
410.3520 8.6053
444.5480 8.5628
478.7440 8.7331
512.9400 8.7642
547.1360 8.6172
581.3320 8.8886
615.5280 8.7579
649.7240 8.7838
683.9200 8.5877
718.1160 8.8827
752.3120 8.5910
786.5080 8.8340
820.7040 8.6819
854.9000 8.7098
889.0960 8.6560
923.2920 8.7339
957.4880 8.8839
991.6840 8.7361
1025.8800 8.7288
1060.0760 8.6905
1094.2720 8.6966
1128.4680 8.6835
1162.6640 8.7484
1196.8600 8.5905
1231.0560 8.7648
1265.2520 8.6124
1299.4480 8.6582
1333.6440 8.8537
1367.8400 8.7014
1402.0360 8.7126
1436.2320 8.7985
1470.4280 8.8236
1504.6240 8.7896
1538.8200 8.7124
1573.0160 8.6683
1607.2120 8.8437
1641.4080 8.8099
1675.6040 8.7713
