VARIABLES = "Time" "MSD"
ZONE T = "BD 88"
0.0000 0.0000
34.1960 52.2974
68.3920 84.0473
102.5880 103.8518
136.7840 116.3048
170.9800 126.9469
205.1760 133.8886
239.3720 140.3147
273.5680 143.6573
307.7640 146.8817
341.9600 151.4254
376.1560 154.1160
410.3520 154.7052
444.5480 155.7112
478.7440 155.0977
512.9400 156.5423
547.1360 157.8759
581.3320 158.7230
615.5280 157.9836
649.7240 156.6968
683.9200 157.0871
718.1160 157.9082
752.3120 156.3572
786.5080 156.7030
820.7040 157.9476
854.9000 158.9131
889.0960 158.1247
923.2920 158.1318
957.4880 160.5448
991.6840 161.9049
1025.8800 161.6343
1060.0760 159.3448
1094.2720 160.2700
1128.4680 161.1877
1162.6640 160.9157
1196.8600 161.3189
1231.0560 159.8863
1265.2520 159.2143
1299.4480 158.6273
1333.6440 157.6184
1367.8400 157.5883
1402.0360 159.0169
1436.2320 158.3456
1470.4280 159.7464
1504.6240 161.5733
1538.8200 162.6013
1573.0160 162.8335
1607.2120 163.9072
1641.4080 163.2005
1675.6040 161.0319
