VARIABLES = "Time" "MSD"
ZONE T = "BD 884"
0.0000 0.0000
34.1960 7.9320
68.3920 8.0316
102.5880 7.8596
136.7840 8.0826
170.9800 8.1899
205.1760 8.2134
239.3720 8.2155
273.5680 8.2546
307.7640 8.2147
341.9600 8.2899
376.1560 8.3669
410.3520 8.3440
444.5480 8.3771
478.7440 8.3029
512.9400 8.3158
547.1360 8.0556
581.3320 8.0062
615.5280 8.0018
649.7240 8.2006
683.9200 8.1360
718.1160 8.0830
752.3120 8.0947
786.5080 8.3336
820.7040 8.1289
854.9000 8.1909
889.0960 8.1588
923.2920 8.1745
957.4880 8.0784
991.6840 8.1753
1025.8800 8.3760
1060.0760 8.3108
1094.2720 8.4320
1128.4680 8.2996
1162.6640 8.2380
1196.8600 8.2200
1231.0560 8.2392
1265.2520 8.2339
1299.4480 8.2661
1333.6440 8.2435
1367.8400 8.1859
1402.0360 8.1231
1436.2320 8.3057
1470.4280 8.1165
1504.6240 8.1749
1538.8200 8.3173
1573.0160 8.1816
1607.2120 8.3873
1641.4080 8.2171
1675.6040 8.2221
