VARIABLES = "Time" "MSD"
ZONE T = "BD 932"
0.0000 0.0000
34.1960 7.5957
68.3920 7.7798
102.5880 7.6764
136.7840 7.7648
170.9800 7.8645
205.1760 7.8638
239.3720 7.7535
273.5680 8.0280
307.7640 7.7240
341.9600 7.9880
376.1560 8.0111
410.3520 7.6693
444.5480 7.8457
478.7440 7.7836
512.9400 7.8578
547.1360 7.9459
581.3320 7.9164
615.5280 7.8643
649.7240 7.8550
683.9200 7.8325
718.1160 7.9084
752.3120 7.9724
786.5080 7.9326
820.7040 7.8322
854.9000 7.9553
889.0960 8.0961
923.2920 8.0282
957.4880 7.7692
991.6840 7.9583
1025.8800 7.8770
1060.0760 7.9939
1094.2720 7.9410
1128.4680 7.9503
1162.6640 7.9090
1196.8600 7.9822
1231.0560 7.7349
1265.2520 7.8971
1299.4480 7.8398
1333.6440 8.0231
1367.8400 7.8188
1402.0360 8.0160
1436.2320 7.9034
1470.4280 7.9185
1504.6240 7.8288
1538.8200 7.8656
1573.0160 7.9375
1607.2120 7.8926
1641.4080 7.9310
1675.6040 8.0490
