VARIABLES = "Time" "MSD"
ZONE T = "BD 96"
0.0000 0.0000
34.1960 59.7596
68.3920 97.9782
102.5880 122.5625
136.7840 140.8625
170.9800 155.3972
205.1760 166.3179
239.3720 174.8869
273.5680 181.8649
307.7640 186.3879
341.9600 190.8594
376.1560 193.1988
410.3520 195.5681
444.5480 198.0099
478.7440 196.7563
512.9400 194.7953
547.1360 195.4563
581.3320 196.0372
615.5280 196.4645
649.7240 196.8222
683.9200 193.5423
718.1160 191.9457
752.3120 190.0656
786.5080 190.6549
820.7040 192.2590
854.9000 194.2020
889.0960 195.4919
923.2920 198.0113
957.4880 199.2103
991.6840 200.8474
1025.8800 204.1745
1060.0760 204.6469
1094.2720 202.5345
1128.4680 201.4772
1162.6640 199.5681
1196.8600 198.9349
1231.0560 200.1783
1265.2520 199.3704
1299.4480 200.2870
1333.6440 201.0958
1367.8400 200.6049
1402.0360 202.2231
1436.2320 200.6631
1470.4280 200.8074
1504.6240 199.7159
1538.8200 200.0444
1573.0160 199.2671
1607.2120 199.0543
1641.4080 199.9147
1675.6040 199.3845
