VARIABLES = "Time" "MSD"
ZONE T = "BD 963"
0.0000 0.0000
34.1960 7.4205
68.3920 7.4875
102.5880 7.5420
136.7840 7.4382
170.9800 7.5639
205.1760 7.3522
239.3720 7.5100
273.5680 7.4464
307.7640 7.4716
341.9600 7.3875
376.1560 7.4193
410.3520 7.5602
444.5480 7.5496
478.7440 7.6113
512.9400 7.5474
547.1360 7.4454
581.3320 7.5237
615.5280 7.4470
649.7240 7.4692
683.9200 7.5255
718.1160 7.6207
752.3120 7.5787
786.5080 7.4478
820.7040 7.6263
854.9000 7.3173
889.0960 7.5655
923.2920 7.5933
957.4880 7.3692
991.6840 7.5089
1025.8800 7.7085
1060.0760 7.7100
1094.2720 7.5728
1128.4680 7.5728
1162.6640 7.5561
1196.8600 7.5343
1231.0560 7.3797
1265.2520 7.6531
1299.4480 7.4152
1333.6440 7.5624
1367.8400 7.5877
1402.0360 7.5793
1436.2320 7.6420
1470.4280 7.6662
1504.6240 7.4820
1538.8200 7.4876
1573.0160 7.5453
1607.2120 7.6424
1641.4080 7.2939
1675.6040 7.5253
