VARIABLES = "Time" "MSD"
ZONE T = "BD 975"
0.0000 0.0000
34.1960 6.8860
68.3920 7.2874
102.5880 7.1987
136.7840 7.1622
170.9800 7.2443
205.1760 7.2333
239.3720 7.3724
273.5680 7.1546
307.7640 7.1488
341.9600 7.1770
376.1560 7.2752
410.3520 7.4180
444.5480 7.3377
478.7440 7.1988
512.9400 7.2794
547.1360 7.1772
581.3320 7.1392
615.5280 7.2162
649.7240 7.2468
683.9200 7.1535
718.1160 7.1912
752.3120 7.1771
786.5080 7.2912
820.7040 7.4647
854.9000 7.2533
889.0960 7.3291
923.2920 7.3709
957.4880 7.3083
991.6840 7.3588
1025.8800 7.4060
1060.0760 7.0925
1094.2720 7.3083
1128.4680 7.3634
1162.6640 7.2133
1196.8600 7.0960
1231.0560 7.3676
1265.2520 7.3793
1299.4480 7.2801
1333.6440 7.2928
1367.8400 7.2724
1402.0360 7.2280
1436.2320 7.1410
1470.4280 7.2665
1504.6240 7.1732
1538.8200 7.1771
1573.0160 7.2324
1607.2120 7.4829
1641.4080 7.3817
1675.6040 7.3236
