VARIABLES = "Time" "MSD"
ZONE T = "BD 985"
0.0000 0.0000
34.1960 6.9496
68.3920 7.2408
102.5880 7.0871
136.7840 7.1856
170.9800 7.3369
205.1760 7.2485
239.3720 7.4399
273.5680 7.1576
307.7640 7.2246
341.9600 7.2525
376.1560 7.1861
410.3520 7.2853
444.5480 7.2972
478.7440 7.2547
512.9400 7.1596
547.1360 7.1532
581.3320 7.1708
615.5280 7.2665
649.7240 7.1410
683.9200 7.1790
718.1160 7.4280
752.3120 7.1377
786.5080 7.1185
820.7040 7.2977
854.9000 7.3358
889.0960 7.3971
923.2920 7.1105
957.4880 7.0468
991.6840 7.3199
1025.8800 7.4806
1060.0760 7.0786
1094.2720 7.1282
1128.4680 7.1821
1162.6640 7.3087
1196.8600 7.3318
1231.0560 7.1759
1265.2520 7.3273
1299.4480 7.2610
1333.6440 7.2101
1367.8400 7.0611
1402.0360 7.3859
1436.2320 7.0917
1470.4280 7.3015
1504.6240 7.2087
1538.8200 7.2452
1573.0160 7.2227
1607.2120 7.2428
1641.4080 7.2260
1675.6040 7.3787
