VARIABLES = "Time" "MSD"
ZONE T = "BD 991"
0.0000 0.0000
34.1960 6.9312
68.3920 7.0987
102.5880 7.1302
136.7840 7.1336
170.9800 7.1812
205.1760 6.9045
239.3720 6.9953
273.5680 7.0789
307.7640 6.9563
341.9600 7.1633
376.1560 7.0262
410.3520 7.1893
444.5480 6.9558
478.7440 6.9531
512.9400 7.0329
547.1360 7.0318
581.3320 6.9594
615.5280 7.0970
649.7240 6.9787
683.9200 7.2015
718.1160 7.1711
752.3120 7.0291
786.5080 6.9699
820.7040 7.0047
854.9000 7.1198
889.0960 6.9475
923.2920 7.1231
957.4880 7.1307
991.6840 7.1976
1025.8800 7.0186
1060.0760 7.0430
1094.2720 7.0986
1128.4680 7.0081
1162.6640 7.0509
1196.8600 7.1811
1231.0560 7.1712
1265.2520 7.1735
1299.4480 6.9664
1333.6440 7.1280
1367.8400 6.8472
1402.0360 7.1011
1436.2320 6.9559
1470.4280 7.1532
1504.6240 6.9859
1538.8200 6.8805
1573.0160 7.0885
1607.2120 6.9552
1641.4080 7.0748
1675.6040 6.9652
